----- GAMESS execution script 'rungms' -----
This job is running on host david-X450LD
under operating system Linux at qui 30 set 2021 10:26:31 -03
Available scratch disk space (Kbyte units) at beginning of the job is
Sist. Arq.     Blocos de 1K Usado Disponível Uso% Montado em
/dev/sda3          49554416 53424   46940668   1% /tmp
GAMESS temporary binary files will be written to /tmp
GAMESS supplementary output files will be written to /home/david/scr
Copying input file ./C2H4.inp to your run's scratch directory...
reading your own /home/david/.gmsrc

 Distributed Data Interface kickoff program.
 Initiating 1 compute processes on 1 nodes to run the following command:
 /opt/gamess/gamess.00.x C2H4 

          *******************************************************
          *                                                     *
          *          GAMESS VERSION = 30 JUN 2021 (R1)          *
          *                                                     *
          *              doi.org/10.1063/5.0005188              *
          *                                                     *
          **************** 64 BIT LINUX VERSION *****************

  GAMESS HAS BEEN MADE POSSIBLE WITH IMPORTANT CONTRIBUTIONS FROM
  THE FOLLOWING INDIVIDUALS (IN ALPHABETICAL ORDER):

     IVANA ADAMOVIC, CHRISTINE AIKENS, TOMOKO AKAMA,
     YURI ALEXEEV, YURIKO AOKI, POOJA ARORA, TOSHIO ASADA,
     ANDREY ASADCHEV, KIM K. BALDRIDGE, PRADIPTA BANDYOPADHYAY,
     MARIA BARYSZ, ROB BELL, JONATHAN BENTZ, COLLEEN BERTONI,
     JERRY A. BOATZ, BRETT BODE, KURT BRORSEN, KURT R. BRORSEN,
     LAIMUTIS BYTAUTAS, CALEB CARLIN, LAURA CARRINGTON,
     GALINA CHABAN, BENOIT CHAMPAGNE, WEI CHEN, MAHITO CHIBA,
     DAN CHIPMAN, CHEOL HO CHOI, TANNER CULPITT,
     DIPAYAN DATTA, PAUL DAY, ALBERT DEFUSCO,
     NUWAN DESILVA, J. EMILIANO DEUSTUA,
     TIM DUDLEY, MICHEL DUPUIS, STEVEN T. ELBERT,
     DMITRI FEDOROV, ALEX FINDLATER, GRAHAM FLETCHER,
     MARK FREITAG, CHRISTIAN FRIEDL, DAVID GARMER,
     IGOR S. GERASIMOV, KURT GLAESEMANN, MARK S. GORDON,
     JEFFREY GOUR, FENG LONG GU, EMILIE B. GUIDEZ,
     ANASTASIA GUNINA, SHARON HAMMES-SCHIFFER, MASATAKE HARUTA,
     KIMIHIKO HIRAO, YASUHIRO IKABATA, TZVETELIN IORDANOV,
     STEPHAN IRLE, KAZUYA ISHIMURA, JOE IVANIC, FRANK JENSEN,
     JAN H. JENSEN, VISVALDAS KAIRYS, MUNEAKI KAMIYA,
     MICHIO KATOUDA, NAOAKI KAWAKAMI, DAN KEMP, BERNARD KIRTMAN,
     KAZUO KITAURA, MARIUSZ KLOBUKOWSKI, MASATO KOBAYASHI,
     PRAKASHAN KORAMBATH, JACEK KORCHOWIEC, SHIRO KOSEKI,
     KAROL KOWALSKI, JIMMY KROMANN, STANISLAW KUCHARSKI,
     HENRY KURTZ, SAROM SOK LEANG, HUI LI, SHUHUA LI, WEI LI,
     JESSE LUTZ, ALEKSANDR O. LYKHIN, MARCIN MAKOWSKI,
     JOANI MATO, NIKITA MATSUNAGA, BENEDETTA MENNUCCI,
     GRANT MERRILL, NORIYUKI MINEZAWA, VLADIMIR MIRONOV,
     EISAKU MIYOSHI, JOHN A. MONTGOMERY JR., HIROTOSHI MORI,
     JONATHAN MULLIN, MONIKA MUSIAL, SHIGERU NAGASE,
     TAKESHI NAGATA, HIROMI NAKAI, TAKAHITO NAKAJIMA,
     YUYA NAKAJIMA, HARUYUKI NAKANO, HIROYA NAKATA, SEAN NEDD,
     HEATHER NETZLOFF, KIET A. NGUYEN, YOSHIO NISHIMOTO,
     BOSILJKA NJEGIC, RYAN OLSON, MIKE PAK, ROBERTO PEVERATI,
     BUU PHAM, PIOTR PIECUCH, ANNA POMOGAEVA, DAVID POOLE,
     SPENCER PRUITT, OLIVIER QUINET, LUKE ROSKOP,
     KLAUS RUEDENBERG, ANDREW SAND, TOSAPORN SATTASATHUCHANA,
     NOZOMI SAWADA, MICHAEL W. SCHMIDT, PATRICK E. SCHNEIDER,
     JUNJI SEINO, PRACHI SHARMA, JUN SHEN, JIM SHOEMAKER,
     YINAN SHU, DEJUN SI, JONATHAN SKONE, LYUDMILA SLIPCHENKO,
     TONY SMITH, JIE SONG, MARK SPACKMAN, CASPER STEINMANN,
     WALT STEVENS, PEIFENG SU, SHUJUN SU, CHET SWALINA,
     TETSUYA TAKETSUGU, ZHEN TAO, NANDUN THELLAMUREGE
     SEIKEN TOKURA, JACOPO TOMASI, TSUGUKI TOUMA, TAKAO TSUNEDA,
     HIROAKI UMEDA, JORGE LUIS GALVEZ VALLEJO, YALI WANG,
     SIMON WEBB, AARON WEST, THERESA L. WINDUS, MARTA WLOCH,
     PENG XU, KIYOSHI YAGI, SUSUMU YANAGISAWA, YANG YANG,
     SOOHAENG YOO, TAKESHI YOSHIKAWA, FEDERICO ZAHARIEV,
     TOBY ZENG

  WHO ARE SUPPORTED BY THEIR INSTITUTION/UNIVERSITY/COMPANY/GROUP
  (IN ALPHABETICAL ORDER):

     EP ANALYTICS, FACULTES UNIVERSITAIRES NOTRE-DAME DE LA PAIX,
     INSTITUTE FOR MOLECULAR SCIENCE, IOWA STATE UNIVERSITY,
     JACKSON STATE UNIVERSITY, JOHANNES KEPLER UNIVERSITY LINZ,
     KYUSHU UNIVERSITY, MICHIGAN STATE UNIVERSITY,
     MIE UNIVERSITY, MOSCOW STATE UNIVERSITY,
     N. COPERNICUS UNIVERSITY, NAGOYA UNIVERSITY,
     NANJING UNIVERSITY, NAT. INST. OF ADVANCED INDUSTRIAL
     SCIENCE AND TECHNOLOGY, NATIONAL INST. OF STANDARDS AND
     TECHNOLOGY, NESMEYANOV INSTITUTE OF ORGANOELEMENT COMPOUNDS
     OF RUSSIAN ACADEMY OF SCIENCES, OSAKA PREFECTURE UNIVERSITY,
     PENNSYLVANIA STATE UNIVERSITY, TOKYO INSTITUTE OF TECHNOLOGY,
     UNIVERSITY OF AARHUS, UNIVERSITY OF ALBERTA,
     UNIVERSITY OF CALIFORNIA AT SANTA BARBARA,
     UNIVERSITY OF COPENHAGEN, UNIVERSITY OF IOWA,
     UNIVERSITY OF MEMPHIS, UNIVERSITY OF MINNESOTA,
     UNIVERSITY OF NEBRASKA, UNIVERSITY OF NEW ENGLAND,
     UNIVERSITY OF NOTRE DAME, UNIVERSITY OF PISA,
     UNIVERSITY OF SILESIA, UNIVERSITY OF TOKYO,
     UNIVERSITY OF ZURICH, WASEDA UNIVERSITY, YALE UNIVERSITY

  GAMESS SOFTWARE MANAGEMENT TEAM FOR THIS RELEASE:
     MARK S. GORDON (TEAM LEAD),
     BRETT BODE (SENIOR ADVISOR),
     GIUSEPPE BARCA,
     COLLEEN BERTONI,
     KRISTOPHER KEIPERT (ADVISOR),
     SAROM S. LEANG (DEVELOPMENT LEAD),
     BUU PHAM,
     JORGE LUIS GALVEZ VALLEJO (WEBSITE ADMINISTRATOR),
     PENG XU

 EXECUTION OF GAMESS BEGUN 10:26:31 30-SEP-2021    

            ECHO OF THE FIRST FEW INPUT CARDS -
 INPUT CARD> $BASIS GBASIS=CCT $END                                                         
 INPUT CARD> $CONTRL ISPHER=1 VBTYP=VB2000 $END                                             
 INPUT CARD> $DATA                                                                          
 INPUT CARD>C2H4                                                                            
 INPUT CARD>C1                                                                              
 INPUT CARD>C     6.0    -0.67365098     0.00000000     0.00000000                          
 INPUT CARD>C     6.0     0.67365098     0.00000000     0.00000000                          
 INPUT CARD>H     1.0    -1.24851787    -0.93385303     0.00000000                          
 INPUT CARD>H     1.0    -1.24851787     0.93385303     0.00000000                          
 INPUT CARD>H     1.0     1.24851787    -0.93385303     0.00000000                          
 INPUT CARD>H     1.0     1.24851787     0.93385303     0.00000000                          
 INPUT CARD> $END                                                                           
 INPUT CARD> $VB2000                                                                        
 INPUT CARD>#! GPF(7)/cc-pVTZ                                                               
 INPUT CARD>                                                                                
 INPUT CARD> C2H4 GVB-PP                                                                    
 INPUT CARD>                                                                                
 INPUT CARD> $GPFEP                                                                         
 INPUT CARD>                                                                                
 INPUT CARD> $MEMORY                                                                        
 INPUT CARD> 40000000                                                                       
 INPUT CARD>                                                                                
 INPUT CARD> $END                                                                           
    1000000 WORDS OF MEMORY AVAILABLE

     BASIS OPTIONS
     -------------
     GBASIS=CCT          IGAUSS=       0      POLAR=NONE    
     NDFUNC=       0     NFFUNC=       0     DIFFSP=       F
     NPFUNC=       0      DIFFS=       F     BASNAM=        


     RUN TITLE
     ---------
 C2H4                                                                            

 THE POINT GROUP OF THE MOLECULE IS C1      
 THE ORDER OF THE PRINCIPAL AXIS IS     0

 ATOM      ATOMIC                      COORDINATES (BOHR)
           CHARGE         X                   Y                   Z
 C           6.0    -1.2730157636        0.0000000000        0.0000000000
 C           6.0     1.2730157636        0.0000000000        0.0000000000
 H           1.0    -2.3593566651       -1.7647263395        0.0000000000
 H           1.0    -2.3593566651        1.7647263395        0.0000000000
 H           1.0     2.3593566651       -1.7647263395        0.0000000000
 H           1.0     2.3593566651        1.7647263395        0.0000000000

          INTERNUCLEAR DISTANCES (ANGS.)
          ------------------------------

                1 C          2 C          3 H          4 H          5 H     

   1 C       0.0000000    1.3473020 *  1.0966100 *  1.0966100 *  2.1370107 *
   2 C       1.3473020 *  0.0000000    2.1370107 *  2.1370107 *  1.0966100 *
   3 H       1.0966100 *  2.1370107 *  0.0000000    1.8677061 *  2.4970357 *
   4 H       1.0966100 *  2.1370107 *  1.8677061 *  0.0000000    3.1182549  
   5 H       2.1370107 *  1.0966100 *  2.4970357 *  3.1182549    0.0000000  
   6 H       2.1370107 *  1.0966100 *  3.1182549    2.4970357 *  1.8677061 *

                6 H     

   1 C       2.1370107 *
   2 C       1.0966100 *
   3 H       3.1182549  
   4 H       2.4970357 *
   5 H       1.8677061 *
   6 H       0.0000000  

  * ... LESS THAN  3.000


     ATOMIC BASIS SET
     ----------------
 THE CONTRACTED PRIMITIVE FUNCTIONS HAVE BEEN UNNORMALIZED
 THE CONTRACTED BASIS FUNCTIONS ARE NOW NORMALIZED TO UNITY

  SHELL TYPE  PRIMITIVE        EXPONENT          CONTRACTION COEFFICIENT(S)

 C         

      1   S       1          8236.0000000    0.000542430189
      1   S       2          1235.0000000    0.004196427901
      1   S       3           280.8000000    0.021540914108
      1   S       4            79.2700000    0.083614949614
      1   S       5            25.5900000    0.239871618922
      1   S       6             8.9970000    0.443751820060
      1   S       7             3.3190000    0.353579696469
      1   S       8             0.3643000   -0.009176366076

      2   S       9          8236.0000000   -0.000196392234
      2   S      10          1235.0000000   -0.001525950274
      2   S      11           280.8000000   -0.007890449028
      2   S      12            79.2700000   -0.031514870532
      2   S      13            25.5900000   -0.096910008320
      2   S      14             8.9970000   -0.220541526288
      2   S      15             3.3190000   -0.296069112937
      2   S      16             0.3643000    1.040503432950

      3   S      17             0.9059000    1.000000000000

      4   S      18             0.1285000    1.000000000000

      5   P      19            18.7100000    0.039426387165
      5   P      20             4.1330000    0.244088984924
      5   P      21             1.2000000    0.815492008943

      6   P      22             0.3827000    1.000000000000

      7   P      23             0.1209000    1.000000000000

      8   D      24             1.0970000    1.000000000000

      9   D      25             0.3180000    1.000000000000

     10   F      26             0.7610000    1.000000000000

 C         

     11   S      27          8236.0000000    0.000542430189
     11   S      28          1235.0000000    0.004196427901
     11   S      29           280.8000000    0.021540914108
     11   S      30            79.2700000    0.083614949614
     11   S      31            25.5900000    0.239871618922
     11   S      32             8.9970000    0.443751820060
     11   S      33             3.3190000    0.353579696469
     11   S      34             0.3643000   -0.009176366076

     12   S      35          8236.0000000   -0.000196392234
     12   S      36          1235.0000000   -0.001525950274
     12   S      37           280.8000000   -0.007890449028
     12   S      38            79.2700000   -0.031514870532
     12   S      39            25.5900000   -0.096910008320
     12   S      40             8.9970000   -0.220541526288
     12   S      41             3.3190000   -0.296069112937
     12   S      42             0.3643000    1.040503432950

     13   S      43             0.9059000    1.000000000000

     14   S      44             0.1285000    1.000000000000

     15   P      45            18.7100000    0.039426387165
     15   P      46             4.1330000    0.244088984924
     15   P      47             1.2000000    0.815492008943

     16   P      48             0.3827000    1.000000000000

     17   P      49             0.1209000    1.000000000000

     18   D      50             1.0970000    1.000000000000

     19   D      51             0.3180000    1.000000000000

     20   F      52             0.7610000    1.000000000000

 H         

     21   S      53            33.8700000    0.025494863235
     21   S      54             5.0950000    0.190362765893
     21   S      55             1.1590000    0.852162022245

     22   S      56             0.3258000    1.000000000000

     23   S      57             0.1027000    1.000000000000

     24   P      58             1.4070000    1.000000000000

     25   P      59             0.3880000    1.000000000000

     26   D      60             1.0570000    1.000000000000

 H         

     27   S      61            33.8700000    0.025494863235
     27   S      62             5.0950000    0.190362765893
     27   S      63             1.1590000    0.852162022245

     28   S      64             0.3258000    1.000000000000

     29   S      65             0.1027000    1.000000000000

     30   P      66             1.4070000    1.000000000000

     31   P      67             0.3880000    1.000000000000

     32   D      68             1.0570000    1.000000000000

 H         

     33   S      69            33.8700000    0.025494863235
     33   S      70             5.0950000    0.190362765893
     33   S      71             1.1590000    0.852162022245

     34   S      72             0.3258000    1.000000000000

     35   S      73             0.1027000    1.000000000000

     36   P      74             1.4070000    1.000000000000

     37   P      75             0.3880000    1.000000000000

     38   D      76             1.0570000    1.000000000000

 H         

     39   S      77            33.8700000    0.025494863235
     39   S      78             5.0950000    0.190362765893
     39   S      79             1.1590000    0.852162022245

     40   S      80             0.3258000    1.000000000000

     41   S      81             0.1027000    1.000000000000

     42   P      82             1.4070000    1.000000000000

     43   P      83             0.3880000    1.000000000000

     44   D      84             1.0570000    1.000000000000

 TOTAL NUMBER OF BASIS SET SHELLS             =   44
 NUMBER OF CARTESIAN GAUSSIAN BASIS FUNCTIONS =  130
 NOTE: THIS RUN WILL RESTRICT THE MO VARIATION SPACE TO SPHERICAL HARMONICS.
 THE NUMBER OF ORBITALS KEPT IN THE VARIATIONAL SPACE WILL BE PRINTED LATER.
 NUMBER OF ELECTRONS                          =   16
 CHARGE OF MOLECULE                           =    0
 SPIN MULTIPLICITY                            =    1
 NUMBER OF OCCUPIED ORBITALS (ALPHA)          =    8
 NUMBER OF OCCUPIED ORBITALS (BETA )          =    8
 TOTAL NUMBER OF ATOMS                        =    6
 THE NUCLEAR REPULSION ENERGY IS       32.9939398586

     $CONTRL OPTIONS
     ---------------
 SCFTYP=RHF          RUNTYP=ENERGY       EXETYP=RUN     
 MPLEVL=       0     CITYP =NONE         CCTYP =NONE         VBTYP =VB2000  
 DFTTYP=NONE         TDDFT =NONE    
 MULT  =       1     ICHARG=       0     NZVAR =       0     COORD =UNIQUE  
 PP    =NONE         RELWFN=NONE         LOCAL =NONE         NUMGRD=       F
 ISPHER=       1     NOSYM =       0     MAXIT =      30     UNITS =ANGS    
 PLTORB=       F     MOLPLT=       F     AIMPAC=       F     FRIEND=        
 NPRINT=       7     IREST =       0     GEOM  =INPUT   
 NORMF =       0     NORMP =       0     ITOL  =      20     ICUT  =       9
 INTTYP=BEST         GRDTYP=BEST         QMTTOL= 1.0E-06

     $SYSTEM OPTIONS
     ---------------
  REPLICATED MEMORY=     1000000 WORDS (ON EVERY NODE).
 DISTRIBUTED MEMDDI=           0 MILLION WORDS IN AGGREGATE,
 MEMDDI DISTRIBUTED OVER   1 PROCESSORS IS           0 WORDS/PROCESSOR.
 TOTAL MEMORY REQUESTED ON EACH PROCESSOR=     1000000 WORDS.
 TIMLIM=      525600.00 MINUTES, OR     365.0 DAYS.
 PARALL= F  BALTYP=  DLB     KDIAG=    0  COREFL= F
 MXSEQ2=     300 MXSEQ3=     150  mem10=         0  mem22=         0

          ----------------
          PROPERTIES INPUT
          ----------------

     MOMENTS            FIELD           POTENTIAL          DENSITY
 IEMOM =       1   IEFLD =       0   IEPOT =       0   IEDEN =       0
 WHERE =COMASS     WHERE =NUCLEI     WHERE =NUCLEI     WHERE =NUCLEI  
 OUTPUT=BOTH       OUTPUT=BOTH       OUTPUT=BOTH       OUTPUT=BOTH    
 IEMINT=       0   IEFINT=       0                     IEDINT=       0
                                                       MORB  =       0
          EXTRAPOLATION IN EFFECT
          SOSCF IN EFFECT
 ORBITAL PRINTING OPTION: NPREO=     1   130     2     1

     -------------------------------
     INTEGRAL TRANSFORMATION OPTIONS
     -------------------------------
     NWORD  =            0
     CUTOFF = 1.0E-09     MPTRAN =       0
     DIRTRF =       F     AOINTS =DUP     

          ----------------------
          INTEGRAL INPUT OPTIONS
          ----------------------
 NOPK  =       1 NORDER=       0 SCHWRZ=       T

     ------------------------------------------
     THE POINT GROUP IS C1 , NAXIS= 0, ORDER= 1
     ------------------------------------------

 -- VARIATIONAL SPACE WILL BE RESTRICTED TO PURE SPHERICAL HARMONICS ONLY --
 AFTER EXCLUDING CONTAMINANT COMBINATIONS FROM THE CARTESIAN GAUSSIAN BASIS
 SET, THE NUMBER OF SPHERICAL HARMONICS KEPT IN THE VARIATION SPACE IS  116

     DIMENSIONS OF THE SYMMETRY SUBSPACES ARE
 A   =  116

 ..... DONE SETTING UP THE RUN .....
 STEP CPU TIME =     0.02 TOTAL CPU TIME =          0.0 (      0.0 MIN)
 TOTAL WALL CLOCK TIME=          0.0 SECONDS, CPU UTILIZATION IS    99.82%

          ********************
          1 ELECTRON INTEGRALS
          ********************
 ...... END OF ONE-ELECTRON INTEGRALS ......
 STEP CPU TIME =     0.01 TOTAL CPU TIME =          0.0 (      0.0 MIN)
 TOTAL WALL CLOCK TIME=          0.0 SECONDS, CPU UTILIZATION IS    99.39%

          -------------
          GUESS OPTIONS
          -------------
          GUESS =HUCKEL            NORB  =       0          NORDER=       0
          MIX   =       F          PRTMO =       F          PUNMO =       F
          TOLZ  = 1.0E-08          TOLE  = 1.0E-05
          SYMDEN=       F          PURIFY=       F

 INITIAL GUESS ORBITALS GENERATED BY HUCKEL   ROUTINE.
 HUCKEL GUESS REQUIRES    126494 WORDS.

 STATISTICS FOR GENERATION OF SYMMETRY ORBITAL -Q- MATRIX
 NUMBER OF CARTESIAN ATOMIC ORBITALS=        130
 NUMBER OF SPHERICAL CONTAMINANTS DROPPED=    14
 NUMBER OF LINEARLY DEPENDENT MOS DROPPED=     0
 TOTAL NUMBER OF MOS IN VARIATION SPACE=     116

 SYMMETRIES FOR INITIAL GUESS ORBITALS FOLLOW.   BOTH SET(S).
     8 ORBITALS ARE OCCUPIED (    2 CORE ORBITALS).
     3=A        4=A        5=A        6=A        7=A        8=A        9=A   
    10=A       11=A       12=A       13=A       14=A       15=A       16=A   
    17=A       18=A   
 ...... END OF INITIAL ORBITAL SELECTION ......
 STEP CPU TIME =     0.01 TOTAL CPU TIME =          0.0 (      0.0 MIN)
 TOTAL WALL CLOCK TIME=          0.0 SECONDS, CPU UTILIZATION IS    99.57%

                    ----------------------
                    AO INTEGRAL TECHNOLOGY
                    ----------------------
     S,P,L SHELL ROTATED AXIS INTEGRALS, REPROGRAMMED BY
        KAZUYA ISHIMURA (IMS) AND JOSE SIERRA (SYNSTAR).
     S,P,D,L SHELL ROTATED AXIS INTEGRALS PROGRAMMED BY
        KAZUYA ISHIMURA (INSTITUTE FOR MOLECULAR SCIENCE).
     S,P,D,F,G SHELL TO TOTAL QUARTET ANGULAR MOMENTUM SUM 5,
        ERIC PROGRAM BY GRAHAM FLETCHER (ELORET AND NASA ADVANCED
        SUPERCOMPUTING DIVISION, AMES RESEARCH CENTER).
     S,P,D,F,G,L SHELL GENERAL RYS QUADRATURE PROGRAMMED BY
        MICHEL DUPUIS (PACIFIC NORTHWEST NATIONAL LABORATORY).

          --------------------
          2 ELECTRON INTEGRALS
          --------------------

 THE -PK- OPTION IS OFF, THE INTEGRALS ARE NOT IN SUPERMATRIX FORM.
 STORING   15000 INTEGRALS/RECORD ON DISK, USING 12 BYTES/INTEGRAL.
 TWO ELECTRON INTEGRAL EVALUATION REQUIRES  100090 WORDS OF MEMORY.
 SCHWARZ INEQUALITY OVERHEAD:      8515 INTEGRALS, T=        0.00
 II,JST,KST,LST =  1  1  1  1 NREC =         1 INTLOC =    1
 II,JST,KST,LST =  2  1  1  1 NREC =         1 INTLOC =    2
 II,JST,KST,LST =  3  1  1  1 NREC =         1 INTLOC =    7
 II,JST,KST,LST =  4  1  1  1 NREC =         1 INTLOC =   22
 II,JST,KST,LST =  5  1  1  1 NREC =         1 INTLOC =   56
 II,JST,KST,LST =  6  1  1  1 NREC =         1 INTLOC =  125
 II,JST,KST,LST =  7  1  1  1 NREC =         1 INTLOC =  329
 II,JST,KST,LST =  8  1  1  1 NREC =         1 INTLOC =  776
 II,JST,KST,LST =  9  1  1  1 NREC =         1 INTLOC = 2864
 II,JST,KST,LST = 10  1  1  1 NREC =         1 INTLOC = 7967
 II,JST,KST,LST = 11  1  1  1 NREC =         2 INTLOC =12194
 II,JST,KST,LST = 12  1  1  1 NREC =         3 INTLOC = 3831
 II,JST,KST,LST = 13  1  1  1 NREC =         3 INTLOC =11143
 II,JST,KST,LST = 14  1  1  1 NREC =         4 INTLOC = 4184
 II,JST,KST,LST = 15  1  1  1 NREC =         4 INTLOC =13011
 II,JST,KST,LST = 16  1  1  1 NREC =         6 INTLOC =10485
 II,JST,KST,LST = 17  1  1  1 NREC =         8 INTLOC =14265
 II,JST,KST,LST = 18  1  1  1 NREC =        11 INTLOC =10185
 II,JST,KST,LST = 19  1  1  1 NREC =        18 INTLOC =11950
 II,JST,KST,LST = 20  1  1  1 NREC =        28 INTLOC = 8084
 II,JST,KST,LST = 21  1  1  1 NREC =        51 INTLOC = 7488
 II,JST,KST,LST = 22  1  1  1 NREC =        57 INTLOC =12202
 II,JST,KST,LST = 23  1  1  1 NREC =        64 INTLOC = 6345
 II,JST,KST,LST = 24  1  1  1 NREC =        71 INTLOC = 5052
 II,JST,KST,LST = 25  1  1  1 NREC =        92 INTLOC =13817
 II,JST,KST,LST = 26  1  1  1 NREC =       117 INTLOC = 2724
 II,JST,KST,LST = 27  1  1  1 NREC =       174 INTLOC = 7501
 II,JST,KST,LST = 28  1  1  1 NREC =       185 INTLOC =10578
 II,JST,KST,LST = 29  1  1  1 NREC =       197 INTLOC = 5217
 II,JST,KST,LST = 30  1  1  1 NREC =       209 INTLOC = 6460
 II,JST,KST,LST = 31  1  1  1 NREC =       246 INTLOC = 5459
 II,JST,KST,LST = 32  1  1  1 NREC =       287 INTLOC = 1185
 II,JST,KST,LST = 33  1  1  1 NREC =       380 INTLOC = 6493
 II,JST,KST,LST = 34  1  1  1 NREC =       397 INTLOC = 1188
 II,JST,KST,LST = 35  1  1  1 NREC =       415 INTLOC =13888
 II,JST,KST,LST = 36  1  1  1 NREC =       435 INTLOC = 5888
 II,JST,KST,LST = 37  1  1  1 NREC =       488 INTLOC = 3921
 II,JST,KST,LST = 38  1  1  1 NREC =       551 INTLOC =12480
 II,JST,KST,LST = 39  1  1  1 NREC =       687 INTLOC =12195
 II,JST,KST,LST = 40  1  1  1 NREC =       712 INTLOC =12386
 II,JST,KST,LST = 41  1  1  1 NREC =       740 INTLOC =14979
 II,JST,KST,LST = 42  1  1  1 NREC =       770 INTLOC = 1118
 II,JST,KST,LST = 43  1  1  1 NREC =       848 INTLOC = 2213
 II,JST,KST,LST = 44  1  1  1 NREC =       940 INTLOC =13778
 SCHWARZ INEQUALITY TEST SKIPPED        9435 INTEGRAL BLOCKS.
 TOTAL NUMBER OF NONZERO TWO-ELECTRON INTEGRALS =            17029587
       1136 INTEGRAL RECORDS WERE STORED ON DISK FILE  8.
  ...... END OF TWO-ELECTRON INTEGRALS .....
 STEP CPU TIME =     1.95 TOTAL CPU TIME =          2.0 (      0.0 MIN)
 TOTAL WALL CLOCK TIME=          2.0 SECONDS, CPU UTILIZATION IS    99.97%

          --------------------------
                 RHF SCF CALCULATION
          --------------------------

     NUCLEAR ENERGY =        32.9939398586
     MAXIT =   30     NPUNCH=    2
     EXTRAP=T  DAMP=F  SHIFT=F  RSTRCT=F  DIIS=F  DEM=F  SOSCF=T
     DENSITY MATRIX CONV=  1.00E-05
     SOSCF WILL OPTIMIZE     864 ORBITAL ROTATIONS, SOGTOL=   0.250
     MEMORY REQUIRED FOR RHF ITERS=    153576 WORDS.

 ITER EX DEM     TOTAL ENERGY        E CHANGE  DENSITY CHANGE     ORB. GRAD
   1  0  0      -77.8447749529   -77.8447749529   0.306258126   0.000000000
          ---------------START SECOND ORDER SCF---------------
   2  1  0      -78.0497035550    -0.2049286021   0.029533535   0.047907816
   3  2  0      -78.0601564610    -0.0104529060   0.012611243   0.008522317
   4  3  0      -78.0616288906    -0.0014724295   0.002034633   0.001903974
   5  4  0      -78.0616710483    -0.0000421577   0.000769984   0.000479267
   6  5  0      -78.0616738714    -0.0000028232   0.000119428   0.000064131
   7  6  0      -78.0616739538    -0.0000000824   0.000030400   0.000015919
   8  7  0      -78.0616739580    -0.0000000042   0.000005943   0.000004239
   9  8  0      -78.0616739582    -0.0000000001   0.000001729   0.000000790

          -----------------
          DENSITY CONVERGED
          -----------------
     TIME TO FORM FOCK OPERATORS=       2.1 SECONDS (       0.2 SEC/ITER)
     TIME TO SOLVE SCF EQUATIONS=       0.0 SECONDS (       0.0 SEC/ITER)

 FINAL RHF ENERGY IS      -78.0616739582 AFTER   9 ITERATIONS

          ------------
          EIGENVECTORS
          ------------

                      1          2          3          4          5
                  -11.2362   -11.2346    -1.0262    -0.7884    -0.6357
                     A          A          A          A          A   
    1  C  1  S    0.691534   0.692152  -0.014944  -0.006226  -0.000000
    2  C  1  S    0.000640   0.001233   0.355900   0.285577  -0.000000
    3  C  1  S    0.029300   0.029083   0.072021   0.058480  -0.000000
    4  C  1  S    0.002474   0.003913   0.129574   0.183968  -0.000000
    5  C  1  X   -0.000096  -0.000541   0.061997  -0.087840  -0.000000
    6  C  1  Y   -0.000000   0.000000  -0.000000   0.000000   0.172946
    7  C  1  Z   -0.000000   0.000000  -0.000000   0.000000  -0.000000
    8  C  1  X    0.000354   0.003139   0.051577  -0.103708  -0.000000
    9  C  1  Y   -0.000000   0.000000  -0.000000   0.000000   0.208146
   10  C  1  Z   -0.000000   0.000000  -0.000000   0.000000  -0.000000
   11  C  1  X   -0.000228   0.001364   0.006012  -0.021626  -0.000000
   12  C  1  Y   -0.000000   0.000000  -0.000000   0.000000   0.076230
   13  C  1  Z   -0.000000   0.000000  -0.000000   0.000000  -0.000000
   14  C  1 XX    0.000170   0.000589   0.012197  -0.000838  -0.000000
   15  C  1 YY    0.000205   0.000088  -0.000384   0.008577  -0.000000
   16  C  1 ZZ   -0.000375  -0.000678  -0.011812  -0.007739  -0.000000
   17  C  1 XY   -0.000000   0.000000  -0.000000   0.000000  -0.005078
   18  C  1 XZ   -0.000000   0.000000  -0.000000   0.000000  -0.000000
   19  C  1 YZ   -0.000000   0.000000  -0.000000   0.000000  -0.000000
   20  C  1 XX   -0.000228   0.001506   0.009231   0.000944  -0.000000
   21  C  1 YY    0.000245  -0.001629   0.003236   0.015076  -0.000000
   22  C  1 ZZ   -0.000017   0.000124  -0.012466  -0.016019  -0.000000
   23  C  1 XY   -0.000000   0.000000  -0.000000   0.000000  -0.004428
   24  C  1 XZ   -0.000000   0.000000  -0.000000   0.000000  -0.000000
   25  C  1 YZ   -0.000000   0.000000  -0.000000   0.000000  -0.000000
   26  C  1 XXX   0.000196   0.000706   0.007266   0.003705  -0.000000
   27  C  1 YYY  -0.000000   0.000000  -0.000000   0.000000  -0.001978
   28  C  1 ZZZ  -0.000000   0.000000  -0.000000   0.000000  -0.000000
   29  C  1 XXY  -0.000000   0.000000  -0.000000   0.000000   0.005249
   30  C  1 XXZ  -0.000000   0.000000  -0.000000   0.000000  -0.000000
   31  C  1 YYX  -0.000379  -0.000791  -0.009108  -0.005513  -0.000000
   32  C  1 YYZ  -0.000000   0.000000  -0.000000   0.000000  -0.000000
   33  C  1 ZZX   0.000117  -0.000157  -0.000640   0.000543  -0.000000
   34  C  1 ZZY  -0.000000   0.000000  -0.000000   0.000000  -0.002595
   35  C  1 XYZ  -0.000000   0.000000  -0.000000   0.000000  -0.000000
   36  C  2  S    0.691534  -0.692152  -0.014944   0.006226  -0.000000
   37  C  2  S    0.000640  -0.001233   0.355900  -0.285577  -0.000000
   38  C  2  S    0.029300  -0.029083   0.072021  -0.058480  -0.000000
   39  C  2  S    0.002474  -0.003913   0.129574  -0.183968  -0.000000
   40  C  2  X    0.000096  -0.000541  -0.061997  -0.087840  -0.000000
   41  C  2  Y   -0.000000   0.000000  -0.000000   0.000000   0.172946
   42  C  2  Z   -0.000000   0.000000  -0.000000   0.000000  -0.000000
   43  C  2  X   -0.000354   0.003139  -0.051577  -0.103708  -0.000000
   44  C  2  Y   -0.000000   0.000000  -0.000000   0.000000   0.208146
   45  C  2  Z   -0.000000   0.000000  -0.000000   0.000000  -0.000000
   46  C  2  X    0.000228   0.001364  -0.006012  -0.021626  -0.000000
   47  C  2  Y   -0.000000   0.000000  -0.000000   0.000000   0.076230
   48  C  2  Z   -0.000000   0.000000  -0.000000   0.000000  -0.000000
   49  C  2 XX    0.000170  -0.000589   0.012197   0.000838  -0.000000
   50  C  2 YY    0.000205  -0.000088  -0.000384  -0.008577  -0.000000
   51  C  2 ZZ   -0.000375   0.000678  -0.011812   0.007739  -0.000000
   52  C  2 XY   -0.000000   0.000000  -0.000000   0.000000   0.005078
   53  C  2 XZ   -0.000000   0.000000  -0.000000   0.000000  -0.000000
   54  C  2 YZ   -0.000000   0.000000  -0.000000   0.000000  -0.000000
   55  C  2 XX   -0.000228  -0.001506   0.009231  -0.000944  -0.000000
   56  C  2 YY    0.000245   0.001629   0.003236  -0.015076  -0.000000
   57  C  2 ZZ   -0.000017  -0.000124  -0.012466   0.016019  -0.000000
   58  C  2 XY   -0.000000   0.000000  -0.000000   0.000000   0.004428
   59  C  2 XZ   -0.000000   0.000000  -0.000000   0.000000  -0.000000
   60  C  2 YZ   -0.000000   0.000000  -0.000000   0.000000  -0.000000
   61  C  2 XXX  -0.000196   0.000706  -0.007266   0.003705  -0.000000
   62  C  2 YYY  -0.000000   0.000000  -0.000000   0.000000  -0.001978
   63  C  2 ZZZ  -0.000000   0.000000  -0.000000   0.000000  -0.000000
   64  C  2 XXY  -0.000000   0.000000  -0.000000   0.000000   0.005249
   65  C  2 XXZ  -0.000000   0.000000  -0.000000   0.000000  -0.000000
   66  C  2 YYX   0.000379  -0.000791   0.009108  -0.005513  -0.000000
   67  C  2 YYZ  -0.000000   0.000000  -0.000000   0.000000  -0.000000
   68  C  2 ZZX  -0.000117  -0.000157   0.000640   0.000543  -0.000000
   69  C  2 ZZY  -0.000000   0.000000  -0.000000   0.000000  -0.002595
   70  C  2 XYZ  -0.000000   0.000000  -0.000000   0.000000  -0.000000
   71  H  3  S    0.000088   0.000066   0.049280   0.086591  -0.092813
   72  H  3  S   -0.000014   0.001501   0.040049   0.107825  -0.146322
   73  H  3  S   -0.000510  -0.000076   0.002758   0.023653  -0.046019
   74  H  3  X   -0.000120  -0.000125   0.002953   0.003241  -0.006601
   75  H  3  Y   -0.000182  -0.000197   0.003178   0.007737  -0.006009
   76  H  3  Z   -0.000000   0.000000  -0.000000   0.000000  -0.000000
   77  H  3  X   -0.000155   0.000559  -0.001933  -0.000175  -0.009295
   78  H  3  Y    0.000059   0.000356  -0.003971   0.006033  -0.007334
   79  H  3  Z   -0.000000   0.000000  -0.000000   0.000000  -0.000000
   80  H  3 XX    0.000003   0.000078   0.000545  -0.000782  -0.001254
   81  H  3 YY   -0.000065  -0.000118  -0.000592   0.001523  -0.000219
   82  H  3 ZZ    0.000061   0.000039   0.000048  -0.000741   0.001473
   83  H  3 XY   -0.000183  -0.000159  -0.000322   0.000997  -0.002939
   84  H  3 XZ   -0.000000   0.000000  -0.000000   0.000000  -0.000000
   85  H  3 YZ   -0.000000   0.000000  -0.000000   0.000000  -0.000000
   86  H  4  S    0.000088   0.000066   0.049280   0.086591   0.092813
   87  H  4  S   -0.000014   0.001501   0.040049   0.107825   0.146322
   88  H  4  S   -0.000510  -0.000076   0.002758   0.023653   0.046019
   89  H  4  X   -0.000120  -0.000125   0.002953   0.003241   0.006601
   90  H  4  Y    0.000182   0.000197  -0.003178  -0.007737  -0.006009
   91  H  4  Z   -0.000000   0.000000  -0.000000   0.000000  -0.000000
   92  H  4  X   -0.000155   0.000559  -0.001933  -0.000175   0.009295
   93  H  4  Y   -0.000059  -0.000356   0.003971  -0.006033  -0.007334
   94  H  4  Z   -0.000000   0.000000  -0.000000   0.000000  -0.000000
   95  H  4 XX    0.000003   0.000078   0.000545  -0.000782   0.001254
   96  H  4 YY   -0.000065  -0.000118  -0.000592   0.001523   0.000219
   97  H  4 ZZ    0.000061   0.000039   0.000048  -0.000741  -0.001473
   98  H  4 XY    0.000183   0.000159   0.000322  -0.000997  -0.002939
   99  H  4 XZ   -0.000000   0.000000  -0.000000   0.000000  -0.000000
  100  H  4 YZ   -0.000000   0.000000  -0.000000   0.000000  -0.000000
  101  H  5  S    0.000088  -0.000066   0.049280  -0.086591  -0.092813
  102  H  5  S   -0.000014  -0.001501   0.040049  -0.107825  -0.146322
  103  H  5  S   -0.000510   0.000076   0.002758  -0.023653  -0.046019
  104  H  5  X    0.000120  -0.000125  -0.002953   0.003241   0.006601
  105  H  5  Y   -0.000182   0.000197   0.003178  -0.007737  -0.006009
  106  H  5  Z   -0.000000   0.000000  -0.000000   0.000000  -0.000000
  107  H  5  X    0.000155   0.000559   0.001933  -0.000175   0.009295
  108  H  5  Y    0.000059  -0.000356  -0.003971  -0.006033  -0.007334
  109  H  5  Z   -0.000000   0.000000  -0.000000   0.000000  -0.000000
  110  H  5 XX    0.000003  -0.000078   0.000545   0.000782  -0.001254
  111  H  5 YY   -0.000065   0.000118  -0.000592  -0.001523  -0.000219
  112  H  5 ZZ    0.000061  -0.000039   0.000048   0.000741   0.001473
  113  H  5 XY    0.000183  -0.000159   0.000322   0.000997   0.002939
  114  H  5 XZ   -0.000000   0.000000  -0.000000   0.000000  -0.000000
  115  H  5 YZ   -0.000000   0.000000  -0.000000   0.000000  -0.000000
  116  H  6  S    0.000088  -0.000066   0.049280  -0.086591   0.092813
  117  H  6  S   -0.000014  -0.001501   0.040049  -0.107825   0.146322
  118  H  6  S   -0.000510   0.000076   0.002758  -0.023653   0.046019
  119  H  6  X    0.000120  -0.000125  -0.002953   0.003241  -0.006601
  120  H  6  Y    0.000182  -0.000197  -0.003178   0.007737  -0.006009
  121  H  6  Z   -0.000000   0.000000  -0.000000   0.000000  -0.000000
  122  H  6  X    0.000155   0.000559   0.001933  -0.000175  -0.009295
  123  H  6  Y   -0.000059   0.000356   0.003971   0.006033  -0.007334
  124  H  6  Z   -0.000000   0.000000  -0.000000   0.000000  -0.000000
  125  H  6 XX    0.000003  -0.000078   0.000545   0.000782   0.001254
  126  H  6 YY   -0.000065   0.000118  -0.000592  -0.001523   0.000219
  127  H  6 ZZ    0.000061  -0.000039   0.000048   0.000741  -0.001473
  128  H  6 XY   -0.000183   0.000159  -0.000322  -0.000997   0.002939
  129  H  6 XZ   -0.000000   0.000000  -0.000000   0.000000  -0.000000
  130  H  6 YZ   -0.000000   0.000000  -0.000000   0.000000  -0.000000

                      6          7          8          9         10
                   -0.5831    -0.5041    -0.3735     0.1487     0.1582
                     A          A          A          A          A   
    1  C  1  S   -0.000126  -0.000000   0.000000  -0.000000   0.008597
    2  C  1  S   -0.028104  -0.000000   0.000000  -0.000000   0.143829
    3  C  1  S   -0.004911  -0.000000   0.000000  -0.000000   0.026269
    4  C  1  S    0.016613  -0.000000   0.000000  -0.000000   1.969777
    5  C  1  X   -0.225399  -0.000000   0.000000  -0.000000  -0.062605
    6  C  1  Y    0.000000   0.163883   0.000000  -0.000000   0.000000
    7  C  1  Z    0.000000  -0.000000   0.202938   0.187411   0.000000
    8  C  1  X   -0.263488  -0.000000   0.000000  -0.000000  -0.208889
    9  C  1  Y    0.000000   0.207986   0.000000  -0.000000   0.000000
   10  C  1  Z    0.000000  -0.000000   0.276952   0.213203   0.000000
   11  C  1  X   -0.100141  -0.000000   0.000000  -0.000000  -0.641712
   12  C  1  Y    0.000000   0.126114   0.000000  -0.000000   0.000000
   13  C  1  Z    0.000000  -0.000000   0.222125   0.818346   0.000000
   14  C  1 XX   -0.015726  -0.000000   0.000000  -0.000000   0.000855
   15  C  1 YY    0.014579  -0.000000   0.000000  -0.000000   0.000390
   16  C  1 ZZ    0.001148  -0.000000   0.000000  -0.000000  -0.001246
   17  C  1 XY    0.000000  -0.020238   0.000000  -0.000000   0.000000
   18  C  1 XZ    0.000000  -0.000000   0.013829  -0.016563   0.000000
   19  C  1 YZ    0.000000  -0.000000   0.000000  -0.000000   0.000000
   20  C  1 XX   -0.012884  -0.000000   0.000000  -0.000000   0.015912
   21  C  1 YY    0.014407  -0.000000   0.000000  -0.000000   0.076266
   22  C  1 ZZ   -0.001523  -0.000000   0.000000  -0.000000  -0.092178
   23  C  1 XY    0.000000  -0.035966   0.000000  -0.000000   0.000000
   24  C  1 XZ    0.000000  -0.000000   0.027400   0.002607   0.000000
   25  C  1 YZ    0.000000  -0.000000   0.000000  -0.000000   0.000000
   26  C  1 XXX  -0.005775  -0.000000   0.000000  -0.000000   0.008513
   27  C  1 YYY   0.000000   0.003201   0.000000  -0.000000   0.000000
   28  C  1 ZZZ   0.000000  -0.000000  -0.005455  -0.002621   0.000000
   29  C  1 XXY   0.000000  -0.001544   0.000000  -0.000000   0.000000
   30  C  1 XXZ   0.000000  -0.000000   0.007693   0.002428   0.000000
   31  C  1 YYX   0.003135  -0.000000   0.000000  -0.000000  -0.018775
   32  C  1 YYZ   0.000000  -0.000000  -0.000374   0.001088   0.000000
   33  C  1 ZZX   0.004613  -0.000000   0.000000  -0.000000   0.007354
   34  C  1 ZZY   0.000000  -0.002750   0.000000  -0.000000   0.000000
   35  C  1 XYZ   0.000000  -0.000000   0.000000  -0.000000   0.000000
   36  C  2  S   -0.000126  -0.000000   0.000000  -0.000000   0.008597
   37  C  2  S   -0.028104  -0.000000   0.000000  -0.000000   0.143829
   38  C  2  S   -0.004911  -0.000000   0.000000  -0.000000   0.026269
   39  C  2  S    0.016613  -0.000000   0.000000  -0.000000   1.969777
   40  C  2  X    0.225399  -0.000000   0.000000  -0.000000   0.062605
   41  C  2  Y    0.000000  -0.163883   0.000000  -0.000000   0.000000
   42  C  2  Z    0.000000  -0.000000   0.202938  -0.187411   0.000000
   43  C  2  X    0.263488  -0.000000   0.000000  -0.000000   0.208889
   44  C  2  Y    0.000000  -0.207986   0.000000  -0.000000   0.000000
   45  C  2  Z    0.000000  -0.000000   0.276952  -0.213203   0.000000
   46  C  2  X    0.100141  -0.000000   0.000000  -0.000000   0.641712
   47  C  2  Y    0.000000  -0.126114   0.000000  -0.000000   0.000000
   48  C  2  Z    0.000000  -0.000000   0.222125  -0.818346   0.000000
   49  C  2 XX   -0.015726  -0.000000   0.000000  -0.000000   0.000855
   50  C  2 YY    0.014579  -0.000000   0.000000  -0.000000   0.000390
   51  C  2 ZZ    0.001148  -0.000000   0.000000  -0.000000  -0.001246
   52  C  2 XY    0.000000  -0.020238   0.000000  -0.000000   0.000000
   53  C  2 XZ    0.000000  -0.000000  -0.013829  -0.016563   0.000000
   54  C  2 YZ    0.000000  -0.000000   0.000000  -0.000000   0.000000
   55  C  2 XX   -0.012884  -0.000000   0.000000  -0.000000   0.015912
   56  C  2 YY    0.014407  -0.000000   0.000000  -0.000000   0.076266
   57  C  2 ZZ   -0.001523  -0.000000   0.000000  -0.000000  -0.092178
   58  C  2 XY    0.000000  -0.035966   0.000000  -0.000000   0.000000
   59  C  2 XZ    0.000000  -0.000000  -0.027400   0.002607   0.000000
   60  C  2 YZ    0.000000  -0.000000   0.000000  -0.000000   0.000000
   61  C  2 XXX   0.005775  -0.000000   0.000000  -0.000000  -0.008513
   62  C  2 YYY   0.000000  -0.003201   0.000000  -0.000000   0.000000
   63  C  2 ZZZ   0.000000  -0.000000  -0.005455   0.002621   0.000000
   64  C  2 XXY   0.000000   0.001544   0.000000  -0.000000   0.000000
   65  C  2 XXZ   0.000000  -0.000000   0.007693  -0.002428   0.000000
   66  C  2 YYX  -0.003135  -0.000000   0.000000  -0.000000   0.018775
   67  C  2 YYZ   0.000000  -0.000000  -0.000374  -0.001088   0.000000
   68  C  2 ZZX  -0.004613  -0.000000   0.000000  -0.000000  -0.007354
   69  C  2 ZZY   0.000000   0.002750   0.000000  -0.000000   0.000000
   70  C  2 XYZ   0.000000  -0.000000   0.000000  -0.000000   0.000000
   71  H  3  S    0.074888  -0.111757   0.000000  -0.000000  -0.001712
   72  H  3  S    0.119030  -0.166624   0.000000  -0.000000  -0.174853
   73  H  3  S    0.046036  -0.082702   0.000000  -0.000000  -1.171243
   74  H  3  X    0.000877  -0.005325   0.000000  -0.000000   0.001362
   75  H  3  Y    0.007689  -0.006627   0.000000  -0.000000   0.012905
   76  H  3  Z    0.000000  -0.000000   0.004928   0.009053   0.000000
   77  H  3  X   -0.001900  -0.005114   0.000000  -0.000000  -0.064965
   78  H  3  Y    0.011300  -0.002461   0.000000  -0.000000  -0.132329
   79  H  3  Z    0.000000  -0.000000   0.013275   0.017351   0.000000
   80  H  3 XX   -0.001769   0.000239   0.000000  -0.000000  -0.000056
   81  H  3 YY    0.002561  -0.001084   0.000000  -0.000000  -0.006573
   82  H  3 ZZ   -0.000792   0.000846   0.000000  -0.000000   0.006629
   83  H  3 XY    0.001084  -0.001661   0.000000  -0.000000  -0.006646
   84  H  3 XZ    0.000000  -0.000000   0.001556   0.000866   0.000000
   85  H  3 YZ    0.000000  -0.000000   0.001595   0.003996   0.000000
   86  H  4  S    0.074888   0.111757   0.000000  -0.000000  -0.001712
   87  H  4  S    0.119030   0.166624   0.000000  -0.000000  -0.174853
   88  H  4  S    0.046036   0.082702   0.000000  -0.000000  -1.171243
   89  H  4  X    0.000877   0.005325   0.000000  -0.000000   0.001362
   90  H  4  Y   -0.007689  -0.006627   0.000000  -0.000000  -0.012905
   91  H  4  Z    0.000000  -0.000000   0.004928   0.009053   0.000000
   92  H  4  X   -0.001900   0.005114   0.000000  -0.000000  -0.064965
   93  H  4  Y   -0.011300  -0.002461   0.000000  -0.000000   0.132329
   94  H  4  Z    0.000000  -0.000000   0.013275   0.017351   0.000000
   95  H  4 XX   -0.001769  -0.000239   0.000000  -0.000000  -0.000056
   96  H  4 YY    0.002561   0.001084   0.000000  -0.000000  -0.006573
   97  H  4 ZZ   -0.000792  -0.000846   0.000000  -0.000000   0.006629
   98  H  4 XY   -0.001084  -0.001661   0.000000  -0.000000   0.006646
   99  H  4 XZ    0.000000  -0.000000   0.001556   0.000866   0.000000
  100  H  4 YZ    0.000000  -0.000000  -0.001595  -0.003996   0.000000
  101  H  5  S    0.074888   0.111757   0.000000  -0.000000  -0.001712
  102  H  5  S    0.119030   0.166624   0.000000  -0.000000  -0.174853
  103  H  5  S    0.046036   0.082702   0.000000  -0.000000  -1.171243
  104  H  5  X   -0.000877  -0.005325   0.000000  -0.000000  -0.001362
  105  H  5  Y    0.007689   0.006627   0.000000  -0.000000   0.012905
  106  H  5  Z    0.000000  -0.000000   0.004928  -0.009053   0.000000
  107  H  5  X    0.001900  -0.005114   0.000000  -0.000000   0.064965
  108  H  5  Y    0.011300   0.002461   0.000000  -0.000000  -0.132329
  109  H  5  Z    0.000000  -0.000000   0.013275  -0.017351   0.000000
  110  H  5 XX   -0.001769  -0.000239   0.000000  -0.000000  -0.000056
  111  H  5 YY    0.002561   0.001084   0.000000  -0.000000  -0.006573
  112  H  5 ZZ   -0.000792  -0.000846   0.000000  -0.000000   0.006629
  113  H  5 XY   -0.001084  -0.001661   0.000000  -0.000000   0.006646
  114  H  5 XZ    0.000000  -0.000000  -0.001556   0.000866   0.000000
  115  H  5 YZ    0.000000  -0.000000   0.001595  -0.003996   0.000000
  116  H  6  S    0.074888  -0.111757   0.000000  -0.000000  -0.001712
  117  H  6  S    0.119030  -0.166624   0.000000  -0.000000  -0.174853
  118  H  6  S    0.046036  -0.082702   0.000000  -0.000000  -1.171243
  119  H  6  X   -0.000877   0.005325   0.000000  -0.000000  -0.001362
  120  H  6  Y   -0.007689   0.006627   0.000000  -0.000000  -0.012905
  121  H  6  Z    0.000000  -0.000000   0.004928  -0.009053   0.000000
  122  H  6  X    0.001900   0.005114   0.000000  -0.000000   0.064965
  123  H  6  Y   -0.011300   0.002461   0.000000  -0.000000   0.132329
  124  H  6  Z    0.000000  -0.000000   0.013275  -0.017351   0.000000
  125  H  6 XX   -0.001769   0.000239   0.000000  -0.000000  -0.000056
  126  H  6 YY    0.002561  -0.001084   0.000000  -0.000000  -0.006573
  127  H  6 ZZ   -0.000792   0.000846   0.000000  -0.000000   0.006629
  128  H  6 XY    0.001084  -0.001661   0.000000  -0.000000  -0.006646
  129  H  6 XZ    0.000000  -0.000000  -0.001556   0.000866   0.000000
  130  H  6 YZ    0.000000  -0.000000  -0.001595   0.003996   0.000000

                     11         12         13         14         15
                    0.1852     0.1901     0.2406     0.3657     0.3752
                     A          A          A          A          A   
    1  C  1  S    0.017167   0.000000   0.000000   0.011387  -0.055834
    2  C  1  S    0.191299   0.000000   0.000000   0.064131  -0.143674
    3  C  1  S    0.023828   0.000000   0.000000  -0.011071  -0.050986
    4  C  1  S    3.339502   0.000000   0.000000   5.981626  -0.849659
    5  C  1  X   -0.037253   0.000000   0.000000   0.026178  -0.067158
    6  C  1  Y   -0.000000  -0.104683  -0.089662  -0.000000  -0.000000
    7  C  1  Z   -0.000000   0.000000   0.000000  -0.000000  -0.000000
    8  C  1  X   -0.087726   0.000000   0.000000   0.601989  -0.357322
    9  C  1  Y   -0.000000  -0.237003  -0.288366  -0.000000  -0.000000
   10  C  1  Z   -0.000000   0.000000   0.000000  -0.000000  -0.000000
   11  C  1  X    0.079101   0.000000   0.000000   4.973359   1.380622
   12  C  1  Y   -0.000000  -0.964351  -2.648583  -0.000000  -0.000000
   13  C  1  Z   -0.000000   0.000000   0.000000  -0.000000  -0.000000
   14  C  1 XX   -0.004803   0.000000   0.000000  -0.012318  -0.042912
   15  C  1 YY    0.001363   0.000000   0.000000   0.009620   0.035958
   16  C  1 ZZ    0.003440   0.000000   0.000000   0.002698   0.006954
   17  C  1 XY   -0.000000  -0.009074   0.019748  -0.000000  -0.000000
   18  C  1 XZ   -0.000000   0.000000   0.000000  -0.000000  -0.000000
   19  C  1 YZ   -0.000000   0.000000   0.000000  -0.000000  -0.000000
   20  C  1 XX    0.039578   0.000000   0.000000   0.378695   0.187128
   21  C  1 YY    0.125836   0.000000   0.000000  -0.239406  -0.111797
   22  C  1 ZZ   -0.165414   0.000000   0.000000  -0.139288  -0.075331
   23  C  1 XY   -0.000000   0.061665   0.061699  -0.000000  -0.000000
   24  C  1 XZ   -0.000000   0.000000   0.000000  -0.000000  -0.000000
   25  C  1 YZ   -0.000000   0.000000   0.000000  -0.000000  -0.000000
   26  C  1 XXX   0.010346   0.000000   0.000000   0.030223   0.019909
   27  C  1 YYY  -0.000000  -0.003283  -0.012022  -0.000000  -0.000000
   28  C  1 ZZZ  -0.000000   0.000000   0.000000  -0.000000  -0.000000
   29  C  1 XXY  -0.000000  -0.002066  -0.000502  -0.000000  -0.000000
   30  C  1 XXZ  -0.000000   0.000000   0.000000  -0.000000  -0.000000
   31  C  1 YYX  -0.012547   0.000000   0.000000  -0.009929  -0.004200
   32  C  1 YYZ  -0.000000   0.000000   0.000000  -0.000000  -0.000000
   33  C  1 ZZX  -0.001334   0.000000   0.000000  -0.030619  -0.022511
   34  C  1 ZZY  -0.000000   0.006471   0.016631  -0.000000  -0.000000
   35  C  1 XYZ  -0.000000   0.000000   0.000000  -0.000000  -0.000000
   36  C  2  S   -0.017167   0.000000   0.000000  -0.011387  -0.055834
   37  C  2  S   -0.191299   0.000000   0.000000  -0.064131  -0.143674
   38  C  2  S   -0.023828   0.000000   0.000000   0.011071  -0.050986
   39  C  2  S   -3.339502   0.000000   0.000000  -5.981626  -0.849659
   40  C  2  X   -0.037253   0.000000   0.000000   0.026178   0.067158
   41  C  2  Y   -0.000000  -0.104683   0.089662  -0.000000  -0.000000
   42  C  2  Z   -0.000000   0.000000   0.000000  -0.000000  -0.000000
   43  C  2  X   -0.087726   0.000000   0.000000   0.601989   0.357322
   44  C  2  Y   -0.000000  -0.237003   0.288366  -0.000000  -0.000000
   45  C  2  Z   -0.000000   0.000000   0.000000  -0.000000  -0.000000
   46  C  2  X    0.079101   0.000000   0.000000   4.973359  -1.380622
   47  C  2  Y   -0.000000  -0.964351   2.648583  -0.000000  -0.000000
   48  C  2  Z   -0.000000   0.000000   0.000000  -0.000000  -0.000000
   49  C  2 XX    0.004803   0.000000   0.000000   0.012318  -0.042912
   50  C  2 YY   -0.001363   0.000000   0.000000  -0.009620   0.035958
   51  C  2 ZZ   -0.003440   0.000000   0.000000  -0.002698   0.006954
   52  C  2 XY   -0.000000   0.009074   0.019748  -0.000000  -0.000000
   53  C  2 XZ   -0.000000   0.000000   0.000000  -0.000000  -0.000000
   54  C  2 YZ   -0.000000   0.000000   0.000000  -0.000000  -0.000000
   55  C  2 XX   -0.039578   0.000000   0.000000  -0.378695   0.187128
   56  C  2 YY   -0.125836   0.000000   0.000000   0.239406  -0.111797
   57  C  2 ZZ    0.165414   0.000000   0.000000   0.139288  -0.075331
   58  C  2 XY   -0.000000  -0.061665   0.061699  -0.000000  -0.000000
   59  C  2 XZ   -0.000000   0.000000   0.000000  -0.000000  -0.000000
   60  C  2 YZ   -0.000000   0.000000   0.000000  -0.000000  -0.000000
   61  C  2 XXX   0.010346   0.000000   0.000000   0.030223  -0.019909
   62  C  2 YYY  -0.000000  -0.003283   0.012022  -0.000000  -0.000000
   63  C  2 ZZZ  -0.000000   0.000000   0.000000  -0.000000  -0.000000
   64  C  2 XXY  -0.000000  -0.002066   0.000502  -0.000000  -0.000000
   65  C  2 XXZ  -0.000000   0.000000   0.000000  -0.000000  -0.000000
   66  C  2 YYX  -0.012547   0.000000   0.000000  -0.009929   0.004200
   67  C  2 YYZ  -0.000000   0.000000   0.000000  -0.000000  -0.000000
   68  C  2 ZZX  -0.001334   0.000000   0.000000  -0.030619   0.022511
   69  C  2 ZZY  -0.000000   0.006471  -0.016631  -0.000000  -0.000000
   70  C  2 XYZ  -0.000000   0.000000   0.000000  -0.000000  -0.000000
   71  H  3  S   -0.005010  -0.014648   0.024526   0.026025   0.017671
   72  H  3  S   -0.241536  -0.068598  -0.226400   0.271605   0.378600
   73  H  3  S   -1.334228  -1.527665  -2.393117   1.253469   0.131084
   74  H  3  X    0.007899   0.012832   0.013190   0.017087   0.008873
   75  H  3  Y    0.012897   0.009809   0.010098  -0.006703   0.000557
   76  H  3  Z   -0.000000   0.000000   0.000000  -0.000000  -0.000000
   77  H  3  X   -0.095281  -0.075224  -0.126438   0.018264   0.036608
   78  H  3  Y   -0.143719  -0.082769  -0.118401   0.068686  -0.061456
   79  H  3  Z   -0.000000   0.000000   0.000000  -0.000000  -0.000000
   80  H  3 XX   -0.002016   0.000482  -0.001519   0.000029   0.006052
   81  H  3 YY   -0.004166  -0.003062  -0.003283   0.002945  -0.012524
   82  H  3 ZZ    0.006182   0.002579   0.004802  -0.002973   0.006471
   83  H  3 XY   -0.005467  -0.004005  -0.010797   0.009804   0.000868
   84  H  3 XZ   -0.000000   0.000000   0.000000  -0.000000  -0.000000
   85  H  3 YZ   -0.000000   0.000000   0.000000  -0.000000  -0.000000
   86  H  4  S   -0.005010   0.014648  -0.024526   0.026025   0.017671
   87  H  4  S   -0.241536   0.068598   0.226400   0.271605   0.378600
   88  H  4  S   -1.334228   1.527665   2.393117   1.253469   0.131084
   89  H  4  X    0.007899  -0.012832  -0.013190   0.017087   0.008873
   90  H  4  Y   -0.012897   0.009809   0.010098   0.006703  -0.000557
   91  H  4  Z   -0.000000   0.000000   0.000000  -0.000000  -0.000000
   92  H  4  X   -0.095281   0.075224   0.126438   0.018264   0.036608
   93  H  4  Y    0.143719  -0.082769  -0.118401  -0.068686   0.061456
   94  H  4  Z   -0.000000   0.000000   0.000000  -0.000000  -0.000000
   95  H  4 XX   -0.002016  -0.000482   0.001519   0.000029   0.006052
   96  H  4 YY   -0.004166   0.003062   0.003283   0.002945  -0.012524
   97  H  4 ZZ    0.006182  -0.002579  -0.004802  -0.002973   0.006471
   98  H  4 XY    0.005467  -0.004005  -0.010797  -0.009804  -0.000868
   99  H  4 XZ   -0.000000   0.000000   0.000000  -0.000000  -0.000000
  100  H  4 YZ   -0.000000   0.000000   0.000000  -0.000000  -0.000000
  101  H  5  S    0.005010  -0.014648  -0.024526  -0.026025   0.017671
  102  H  5  S    0.241536  -0.068598   0.226400  -0.271605   0.378600
  103  H  5  S    1.334228  -1.527665   2.393117  -1.253469   0.131084
  104  H  5  X    0.007899  -0.012832   0.013190   0.017087  -0.008873
  105  H  5  Y   -0.012897   0.009809  -0.010098   0.006703   0.000557
  106  H  5  Z   -0.000000   0.000000   0.000000  -0.000000  -0.000000
  107  H  5  X   -0.095281   0.075224  -0.126438   0.018264  -0.036608
  108  H  5  Y    0.143719  -0.082769   0.118401  -0.068686  -0.061456
  109  H  5  Z   -0.000000   0.000000   0.000000  -0.000000  -0.000000
  110  H  5 XX    0.002016   0.000482   0.001519  -0.000029   0.006052
  111  H  5 YY    0.004166  -0.003062   0.003283  -0.002945  -0.012524
  112  H  5 ZZ   -0.006182   0.002579  -0.004802   0.002973   0.006471
  113  H  5 XY   -0.005467   0.004005  -0.010797   0.009804  -0.000868
  114  H  5 XZ   -0.000000   0.000000   0.000000  -0.000000  -0.000000
  115  H  5 YZ   -0.000000   0.000000   0.000000  -0.000000  -0.000000
  116  H  6  S    0.005010   0.014648   0.024526  -0.026025   0.017671
  117  H  6  S    0.241536   0.068598  -0.226400  -0.271605   0.378600
  118  H  6  S    1.334228   1.527665  -2.393117  -1.253469   0.131084
  119  H  6  X    0.007899   0.012832  -0.013190   0.017087  -0.008873
  120  H  6  Y    0.012897   0.009809  -0.010098  -0.006703  -0.000557
  121  H  6  Z   -0.000000   0.000000   0.000000  -0.000000  -0.000000
  122  H  6  X   -0.095281  -0.075224   0.126438   0.018264  -0.036608
  123  H  6  Y   -0.143719  -0.082769   0.118401   0.068686   0.061456
  124  H  6  Z   -0.000000   0.000000   0.000000  -0.000000  -0.000000
  125  H  6 XX    0.002016  -0.000482  -0.001519  -0.000029   0.006052
  126  H  6 YY    0.004166   0.003062  -0.003283  -0.002945  -0.012524
  127  H  6 ZZ   -0.006182  -0.002579   0.004802   0.002973   0.006471
  128  H  6 XY    0.005467   0.004005  -0.010797  -0.009804   0.000868
  129  H  6 XZ   -0.000000   0.000000   0.000000  -0.000000  -0.000000
  130  H  6 YZ   -0.000000   0.000000   0.000000  -0.000000  -0.000000

                     16         17         18         19         20
                    0.4357     0.4482     0.4873     0.5642     0.5838
                     A          A          A          A          A   
    1  C  1  S   -0.000000   0.000000  -0.040040  -0.000000  -0.004444
    2  C  1  S   -0.000000   0.000000  -0.136682  -0.000000   0.155107
    3  C  1  S   -0.000000   0.000000  -0.069884  -0.000000  -0.054897
    4  C  1  S   -0.000000   0.000000   1.880616  -0.000000   6.514873
    5  C  1  X   -0.000000   0.000000  -0.071107  -0.000000   0.060898
    6  C  1  Y   -0.005291   0.000000   0.000000  -0.000000   0.000000
    7  C  1  Z   -0.000000  -0.137688   0.000000  -0.203768   0.000000
    8  C  1  X   -0.000000   0.000000  -0.579248  -0.000000  -0.320269
    9  C  1  Y    0.356985   0.000000   0.000000  -0.000000   0.000000
   10  C  1  Z   -0.000000  -0.548819   0.000000  -0.598257   0.000000
   11  C  1  X   -0.000000   0.000000  -0.005688  -0.000000   2.066357
   12  C  1  Y    1.078945   0.000000   0.000000  -0.000000   0.000000
   13  C  1  Z   -0.000000   0.723839   0.000000   1.530199   0.000000
   14  C  1 XX   -0.000000   0.000000  -0.025604  -0.000000  -0.012055
   15  C  1 YY   -0.000000   0.000000   0.028597  -0.000000  -0.004127
   16  C  1 ZZ   -0.000000   0.000000  -0.002993  -0.000000   0.016182
   17  C  1 XY    0.028338   0.000000   0.000000  -0.000000   0.000000
   18  C  1 XZ   -0.000000  -0.003602   0.000000  -0.008469   0.000000
   19  C  1 YZ   -0.000000   0.000000   0.000000  -0.000000   0.000000
   20  C  1 XX   -0.000000   0.000000  -0.021685  -0.000000  -0.165534
   21  C  1 YY   -0.000000   0.000000   0.066160  -0.000000   0.461663
   22  C  1 ZZ   -0.000000   0.000000  -0.044476  -0.000000  -0.296128
   23  C  1 XY   -0.252299   0.000000   0.000000  -0.000000   0.000000
   24  C  1 XZ   -0.000000  -0.111039   0.000000   0.254483   0.000000
   25  C  1 YZ   -0.000000   0.000000   0.000000  -0.000000   0.000000
   26  C  1 XXX  -0.000000   0.000000   0.041420  -0.000000   0.043339
   27  C  1 YYY   0.007716   0.000000   0.000000  -0.000000   0.000000
   28  C  1 ZZZ  -0.000000  -0.006910   0.000000  -0.019777   0.000000
   29  C  1 XXY   0.021709   0.000000   0.000000  -0.000000   0.000000
   30  C  1 XXZ  -0.000000   0.005383   0.000000   0.033019   0.000000
   31  C  1 YYX  -0.000000   0.000000  -0.070485  -0.000000  -0.073662
   32  C  1 YYZ  -0.000000   0.003887   0.000000  -0.006486   0.000000
   33  C  1 ZZX  -0.000000   0.000000   0.014914  -0.000000   0.015517
   34  C  1 ZZY  -0.032061   0.000000   0.000000  -0.000000   0.000000
   35  C  1 XYZ  -0.000000   0.000000   0.000000  -0.000000   0.000000
   36  C  2  S   -0.000000   0.000000  -0.040040  -0.000000   0.004444
   37  C  2  S   -0.000000   0.000000  -0.136682  -0.000000  -0.155107
   38  C  2  S   -0.000000   0.000000  -0.069884  -0.000000   0.054897
   39  C  2  S   -0.000000   0.000000   1.880616  -0.000000  -6.514873
   40  C  2  X   -0.000000   0.000000   0.071107  -0.000000   0.060898
   41  C  2  Y   -0.005291   0.000000   0.000000  -0.000000   0.000000
   42  C  2  Z   -0.000000  -0.137688   0.000000   0.203768   0.000000
   43  C  2  X   -0.000000   0.000000   0.579248  -0.000000  -0.320269
   44  C  2  Y    0.356985   0.000000   0.000000  -0.000000   0.000000
   45  C  2  Z   -0.000000  -0.548819   0.000000   0.598257   0.000000
   46  C  2  X   -0.000000   0.000000   0.005688  -0.000000   2.066357
   47  C  2  Y    1.078945   0.000000   0.000000  -0.000000   0.000000
   48  C  2  Z   -0.000000   0.723839   0.000000  -1.530199   0.000000
   49  C  2 XX   -0.000000   0.000000  -0.025604  -0.000000   0.012055
   50  C  2 YY   -0.000000   0.000000   0.028597  -0.000000   0.004127
   51  C  2 ZZ   -0.000000   0.000000  -0.002993  -0.000000  -0.016182
   52  C  2 XY   -0.028338   0.000000   0.000000  -0.000000   0.000000
   53  C  2 XZ   -0.000000   0.003602   0.000000  -0.008469   0.000000
   54  C  2 YZ   -0.000000   0.000000   0.000000  -0.000000   0.000000
   55  C  2 XX   -0.000000   0.000000  -0.021685  -0.000000   0.165534
   56  C  2 YY   -0.000000   0.000000   0.066160  -0.000000  -0.461663
   57  C  2 ZZ   -0.000000   0.000000  -0.044476  -0.000000   0.296128
   58  C  2 XY    0.252299   0.000000   0.000000  -0.000000   0.000000
   59  C  2 XZ   -0.000000   0.111039   0.000000   0.254483   0.000000
   60  C  2 YZ   -0.000000   0.000000   0.000000  -0.000000   0.000000
   61  C  2 XXX  -0.000000   0.000000  -0.041420  -0.000000   0.043339
   62  C  2 YYY   0.007716   0.000000   0.000000  -0.000000   0.000000
   63  C  2 ZZZ  -0.000000  -0.006910   0.000000   0.019777   0.000000
   64  C  2 XXY   0.021709   0.000000   0.000000  -0.000000   0.000000
   65  C  2 XXZ  -0.000000   0.005383   0.000000  -0.033019   0.000000
   66  C  2 YYX  -0.000000   0.000000   0.070485  -0.000000  -0.073662
   67  C  2 YYZ  -0.000000   0.003887   0.000000   0.006486   0.000000
   68  C  2 ZZX  -0.000000   0.000000  -0.014914  -0.000000   0.015517
   69  C  2 ZZY  -0.032061   0.000000   0.000000  -0.000000   0.000000
   70  C  2 XYZ  -0.000000   0.000000   0.000000  -0.000000   0.000000
   71  H  3  S    0.059175   0.000000  -0.026206  -0.000000  -0.044543
   72  H  3  S    1.046403   0.000000  -0.984007  -0.000000  -1.598204
   73  H  3  S    0.240045   0.000000  -0.265162  -0.000000   0.356711
   74  H  3  X    0.011432   0.000000  -0.004521  -0.000000  -0.012003
   75  H  3  Y    0.017872   0.000000  -0.017102  -0.000000  -0.029168
   76  H  3  Z   -0.000000   0.006041   0.000000   0.008794   0.000000
   77  H  3  X   -0.000015   0.000000  -0.150642  -0.000000  -0.219672
   78  H  3  Y    0.167751   0.000000  -0.207218  -0.000000  -0.155182
   79  H  3  Z   -0.000000  -0.045726   0.000000  -0.068746   0.000000
   80  H  3 XX   -0.008298   0.000000   0.001654  -0.000000  -0.007470
   81  H  3 YY    0.012353   0.000000  -0.024369  -0.000000  -0.010486
   82  H  3 ZZ   -0.004055   0.000000   0.022715  -0.000000   0.017956
   83  H  3 XY    0.011871   0.000000  -0.025599  -0.000000  -0.021915
   84  H  3 XZ   -0.000000   0.000361   0.000000  -0.002652   0.000000
   85  H  3 YZ   -0.000000  -0.001900   0.000000   0.005273   0.000000
   86  H  4  S   -0.059175   0.000000  -0.026206  -0.000000  -0.044543
   87  H  4  S   -1.046403   0.000000  -0.984007  -0.000000  -1.598204
   88  H  4  S   -0.240045   0.000000  -0.265162  -0.000000   0.356711
   89  H  4  X   -0.011432   0.000000  -0.004521  -0.000000  -0.012003
   90  H  4  Y    0.017872   0.000000   0.017102  -0.000000   0.029168
   91  H  4  Z   -0.000000   0.006041   0.000000   0.008794   0.000000
   92  H  4  X    0.000015   0.000000  -0.150642  -0.000000  -0.219672
   93  H  4  Y    0.167751   0.000000   0.207218  -0.000000   0.155182
   94  H  4  Z   -0.000000  -0.045726   0.000000  -0.068746   0.000000
   95  H  4 XX    0.008298   0.000000   0.001654  -0.000000  -0.007470
   96  H  4 YY   -0.012353   0.000000  -0.024369  -0.000000  -0.010486
   97  H  4 ZZ    0.004055   0.000000   0.022715  -0.000000   0.017956
   98  H  4 XY    0.011871   0.000000   0.025599  -0.000000   0.021915
   99  H  4 XZ   -0.000000   0.000361   0.000000  -0.002652   0.000000
  100  H  4 YZ   -0.000000   0.001900   0.000000  -0.005273   0.000000
  101  H  5  S    0.059175   0.000000  -0.026206  -0.000000   0.044543
  102  H  5  S    1.046403   0.000000  -0.984007  -0.000000   1.598204
  103  H  5  S    0.240045   0.000000  -0.265162  -0.000000  -0.356711
  104  H  5  X   -0.011432   0.000000   0.004521  -0.000000  -0.012003
  105  H  5  Y    0.017872   0.000000  -0.017102  -0.000000   0.029168
  106  H  5  Z   -0.000000   0.006041   0.000000  -0.008794   0.000000
  107  H  5  X    0.000015   0.000000   0.150642  -0.000000  -0.219672
  108  H  5  Y    0.167751   0.000000  -0.207218  -0.000000   0.155182
  109  H  5  Z   -0.000000  -0.045726   0.000000   0.068746   0.000000
  110  H  5 XX   -0.008298   0.000000   0.001654  -0.000000   0.007470
  111  H  5 YY    0.012353   0.000000  -0.024369  -0.000000   0.010486
  112  H  5 ZZ   -0.004055   0.000000   0.022715  -0.000000  -0.017956
  113  H  5 XY   -0.011871   0.000000   0.025599  -0.000000  -0.021915
  114  H  5 XZ   -0.000000  -0.000361   0.000000  -0.002652   0.000000
  115  H  5 YZ   -0.000000  -0.001900   0.000000  -0.005273   0.000000
  116  H  6  S   -0.059175   0.000000  -0.026206  -0.000000   0.044543
  117  H  6  S   -1.046403   0.000000  -0.984007  -0.000000   1.598204
  118  H  6  S   -0.240045   0.000000  -0.265162  -0.000000  -0.356711
  119  H  6  X    0.011432   0.000000   0.004521  -0.000000  -0.012003
  120  H  6  Y    0.017872   0.000000   0.017102  -0.000000  -0.029168
  121  H  6  Z   -0.000000   0.006041   0.000000  -0.008794   0.000000
  122  H  6  X   -0.000015   0.000000   0.150642  -0.000000  -0.219672
  123  H  6  Y    0.167751   0.000000   0.207218  -0.000000  -0.155182
  124  H  6  Z   -0.000000  -0.045726   0.000000   0.068746   0.000000
  125  H  6 XX    0.008298   0.000000   0.001654  -0.000000   0.007470
  126  H  6 YY   -0.012353   0.000000  -0.024369  -0.000000   0.010486
  127  H  6 ZZ    0.004055   0.000000   0.022715  -0.000000  -0.017956
  128  H  6 XY   -0.011871   0.000000  -0.025599  -0.000000   0.021915
  129  H  6 XZ   -0.000000  -0.000361   0.000000  -0.002652   0.000000
  130  H  6 YZ   -0.000000   0.001900   0.000000   0.005273   0.000000

                     21         22         23         24         25
                    0.5926     0.6321     0.6346     0.6780     0.6919
                     A          A          A          A          A   
    1  C  1  S   -0.000000   0.009727   0.019200   0.000000   0.000000
    2  C  1  S   -0.000000  -0.222504  -0.207128   0.000000   0.000000
    3  C  1  S   -0.000000  -0.095647  -0.184850   0.000000   0.000000
    4  C  1  S   -0.000000   3.758227   9.398133   0.000000   0.000000
    5  C  1  X   -0.000000   0.127148   0.110010   0.000000   0.000000
    6  C  1  Y   -0.199361  -0.000000  -0.000000   0.000000   0.224188
    7  C  1  Z   -0.000000  -0.000000  -0.000000   0.000000   0.000000
    8  C  1  X   -0.000000  -0.358622  -0.622370   0.000000   0.000000
    9  C  1  Y    0.492086  -0.000000  -0.000000   0.000000  -0.173301
   10  C  1  Z   -0.000000  -0.000000  -0.000000   0.000000   0.000000
   11  C  1  X   -0.000000  -1.137268   0.625677   0.000000   0.000000
   12  C  1  Y    2.180257  -0.000000  -0.000000   0.000000  -5.607046
   13  C  1  Z   -0.000000  -0.000000  -0.000000   0.000000   0.000000
   14  C  1 XX   -0.000000  -0.014062  -0.005930   0.000000   0.000000
   15  C  1 YY   -0.000000   0.038291   0.014233   0.000000   0.000000
   16  C  1 ZZ   -0.000000  -0.024229  -0.008303   0.000000   0.000000
   17  C  1 XY   -0.032106  -0.000000  -0.000000   0.000000   0.025074
   18  C  1 XZ   -0.000000  -0.000000  -0.000000   0.000000   0.000000
   19  C  1 YZ   -0.000000  -0.000000  -0.000000  -0.003348   0.000000
   20  C  1 XX   -0.000000  -0.058726  -0.158206   0.000000   0.000000
   21  C  1 YY   -0.000000   0.449968   1.000821   0.000000   0.000000
   22  C  1 ZZ   -0.000000  -0.391243  -0.842615   0.000000   0.000000
   23  C  1 XY   -0.731433  -0.000000  -0.000000   0.000000   0.547604
   24  C  1 XZ   -0.000000  -0.000000  -0.000000   0.000000   0.000000
   25  C  1 YZ   -0.000000  -0.000000  -0.000000   0.390845   0.000000
   26  C  1 XXX  -0.000000   0.041300   0.062020   0.000000   0.000000
   27  C  1 YYY   0.035234  -0.000000  -0.000000   0.000000  -0.031276
   28  C  1 ZZZ  -0.000000  -0.000000  -0.000000   0.000000   0.000000
   29  C  1 XXY   0.007671  -0.000000  -0.000000   0.000000  -0.017480
   30  C  1 XXZ  -0.000000  -0.000000  -0.000000   0.000000   0.000000
   31  C  1 YYX  -0.000000  -0.089063  -0.111969   0.000000   0.000000
   32  C  1 YYZ  -0.000000  -0.000000  -0.000000   0.000000   0.000000
   33  C  1 ZZX  -0.000000   0.033653   0.028760   0.000000   0.000000
   34  C  1 ZZY  -0.054942  -0.000000  -0.000000   0.000000   0.059442
   35  C  1 XYZ  -0.000000  -0.000000  -0.000000   0.002946   0.000000
   36  C  2  S   -0.000000   0.009727  -0.019200   0.000000   0.000000
   37  C  2  S   -0.000000  -0.222504   0.207128   0.000000   0.000000
   38  C  2  S   -0.000000  -0.095647   0.184850   0.000000   0.000000
   39  C  2  S   -0.000000   3.758227  -9.398133   0.000000   0.000000
   40  C  2  X   -0.000000  -0.127148   0.110010   0.000000   0.000000
   41  C  2  Y   -0.199361  -0.000000  -0.000000   0.000000  -0.224188
   42  C  2  Z   -0.000000  -0.000000  -0.000000   0.000000   0.000000
   43  C  2  X   -0.000000   0.358622  -0.622370   0.000000   0.000000
   44  C  2  Y    0.492086  -0.000000  -0.000000   0.000000   0.173301
   45  C  2  Z   -0.000000  -0.000000  -0.000000   0.000000   0.000000
   46  C  2  X   -0.000000   1.137268   0.625677   0.000000   0.000000
   47  C  2  Y    2.180257  -0.000000  -0.000000   0.000000   5.607046
   48  C  2  Z   -0.000000  -0.000000  -0.000000   0.000000   0.000000
   49  C  2 XX   -0.000000  -0.014062   0.005930   0.000000   0.000000
   50  C  2 YY   -0.000000   0.038291  -0.014233   0.000000   0.000000
   51  C  2 ZZ   -0.000000  -0.024229   0.008303   0.000000   0.000000
   52  C  2 XY    0.032106  -0.000000  -0.000000   0.000000   0.025074
   53  C  2 XZ   -0.000000  -0.000000  -0.000000   0.000000   0.000000
   54  C  2 YZ   -0.000000  -0.000000  -0.000000  -0.003348   0.000000
   55  C  2 XX   -0.000000  -0.058726   0.158206   0.000000   0.000000
   56  C  2 YY   -0.000000   0.449968  -1.000821   0.000000   0.000000
   57  C  2 ZZ   -0.000000  -0.391243   0.842615   0.000000   0.000000
   58  C  2 XY    0.731433  -0.000000  -0.000000   0.000000   0.547604
   59  C  2 XZ   -0.000000  -0.000000  -0.000000   0.000000   0.000000
   60  C  2 YZ   -0.000000  -0.000000  -0.000000   0.390845   0.000000
   61  C  2 XXX  -0.000000  -0.041300   0.062020   0.000000   0.000000
   62  C  2 YYY   0.035234  -0.000000  -0.000000   0.000000   0.031276
   63  C  2 ZZZ  -0.000000  -0.000000  -0.000000   0.000000   0.000000
   64  C  2 XXY   0.007671  -0.000000  -0.000000   0.000000   0.017480
   65  C  2 XXZ  -0.000000  -0.000000  -0.000000   0.000000   0.000000
   66  C  2 YYX  -0.000000   0.089063  -0.111969   0.000000   0.000000
   67  C  2 YYZ  -0.000000  -0.000000  -0.000000   0.000000   0.000000
   68  C  2 ZZX  -0.000000  -0.033653   0.028760   0.000000   0.000000
   69  C  2 ZZY  -0.054942  -0.000000  -0.000000   0.000000  -0.059442
   70  C  2 XYZ  -0.000000  -0.000000  -0.000000  -0.002946   0.000000
   71  H  3  S   -0.058510   0.068405   0.073212   0.000000   0.045359
   72  H  3  S    0.909055  -0.787545  -1.818509   0.000000  -1.307437
   73  H  3  S    1.814574  -1.336197  -1.521468   0.000000  -2.691765
   74  H  3  X   -0.003540  -0.005727  -0.007624   0.000000   0.004042
   75  H  3  Y    0.006162   0.002039  -0.009821   0.000000  -0.008079
   76  H  3  Z   -0.000000  -0.000000  -0.000000   0.024584   0.000000
   77  H  3  X    0.375410  -0.277238  -0.590282   0.000000  -0.374982
   78  H  3  Y    0.518469  -0.635223  -0.778422   0.000000  -0.467305
   79  H  3  Z   -0.000000  -0.000000  -0.000000  -0.240073   0.000000
   80  H  3 XX   -0.001912   0.004370  -0.009842   0.000000   0.002679
   81  H  3 YY    0.019281  -0.034106  -0.028772   0.000000  -0.016059
   82  H  3 ZZ   -0.017369   0.029736   0.038614   0.000000   0.013380
   83  H  3 XY    0.033318  -0.033765  -0.045216   0.000000  -0.029352
   84  H  3 XZ   -0.000000  -0.000000  -0.000000   0.003178   0.000000
   85  H  3 YZ   -0.000000  -0.000000  -0.000000   0.010317   0.000000
   86  H  4  S    0.058510   0.068405   0.073212   0.000000  -0.045359
   87  H  4  S   -0.909055  -0.787545  -1.818509   0.000000   1.307437
   88  H  4  S   -1.814574  -1.336197  -1.521468   0.000000   2.691765
   89  H  4  X    0.003540  -0.005727  -0.007624   0.000000  -0.004042
   90  H  4  Y    0.006162  -0.002039   0.009821   0.000000  -0.008079
   91  H  4  Z   -0.000000  -0.000000  -0.000000  -0.024584   0.000000
   92  H  4  X   -0.375410  -0.277238  -0.590282   0.000000   0.374982
   93  H  4  Y    0.518469   0.635223   0.778422   0.000000  -0.467305
   94  H  4  Z   -0.000000  -0.000000  -0.000000   0.240073   0.000000
   95  H  4 XX    0.001912   0.004370  -0.009842   0.000000  -0.002679
   96  H  4 YY   -0.019281  -0.034106  -0.028772   0.000000   0.016059
   97  H  4 ZZ    0.017369   0.029736   0.038614   0.000000  -0.013380
   98  H  4 XY    0.033318   0.033765   0.045216   0.000000  -0.029352
   99  H  4 XZ   -0.000000  -0.000000  -0.000000  -0.003178   0.000000
  100  H  4 YZ   -0.000000  -0.000000  -0.000000   0.010317   0.000000
  101  H  5  S   -0.058510   0.068405  -0.073212   0.000000  -0.045359
  102  H  5  S    0.909055  -0.787545   1.818509   0.000000   1.307437
  103  H  5  S    1.814574  -1.336197   1.521468   0.000000   2.691765
  104  H  5  X    0.003540   0.005727  -0.007624   0.000000   0.004042
  105  H  5  Y    0.006162   0.002039   0.009821   0.000000   0.008079
  106  H  5  Z   -0.000000  -0.000000  -0.000000   0.024584   0.000000
  107  H  5  X   -0.375410   0.277238  -0.590282   0.000000  -0.374982
  108  H  5  Y    0.518469  -0.635223   0.778422   0.000000   0.467305
  109  H  5  Z   -0.000000  -0.000000  -0.000000  -0.240073   0.000000
  110  H  5 XX   -0.001912   0.004370   0.009842   0.000000  -0.002679
  111  H  5 YY    0.019281  -0.034106   0.028772   0.000000   0.016059
  112  H  5 ZZ   -0.017369   0.029736  -0.038614   0.000000  -0.013380
  113  H  5 XY   -0.033318   0.033765  -0.045216   0.000000  -0.029352
  114  H  5 XZ   -0.000000  -0.000000  -0.000000  -0.003178   0.000000
  115  H  5 YZ   -0.000000  -0.000000  -0.000000   0.010317   0.000000
  116  H  6  S    0.058510   0.068405  -0.073212   0.000000   0.045359
  117  H  6  S   -0.909055  -0.787545   1.818509   0.000000  -1.307437
  118  H  6  S   -1.814574  -1.336197   1.521468   0.000000  -2.691765
  119  H  6  X   -0.003540   0.005727  -0.007624   0.000000  -0.004042
  120  H  6  Y    0.006162  -0.002039  -0.009821   0.000000   0.008079
  121  H  6  Z   -0.000000  -0.000000  -0.000000  -0.024584   0.000000
  122  H  6  X    0.375410   0.277238  -0.590282   0.000000   0.374982
  123  H  6  Y    0.518469   0.635223  -0.778422   0.000000   0.467305
  124  H  6  Z   -0.000000  -0.000000  -0.000000   0.240073   0.000000
  125  H  6 XX    0.001912   0.004370   0.009842   0.000000   0.002679
  126  H  6 YY   -0.019281  -0.034106   0.028772   0.000000  -0.016059
  127  H  6 ZZ    0.017369   0.029736  -0.038614   0.000000   0.013380
  128  H  6 XY   -0.033318  -0.033765   0.045216   0.000000  -0.029352
  129  H  6 XZ   -0.000000  -0.000000  -0.000000   0.003178   0.000000
  130  H  6 YZ   -0.000000  -0.000000  -0.000000   0.010317   0.000000

                     26         27         28         29         30
                    0.7841     0.8241     0.8406     0.8700     0.9830
                     A          A          A          A          A   
    1  C  1  S    0.008278   0.000000   0.000000  -0.000000  -0.020354
    2  C  1  S   -0.171729   0.000000   0.000000  -0.000000  -0.015508
    3  C  1  S   -0.129256   0.000000   0.000000  -0.000000  -0.068417
    4  C  1  S    8.917711   0.000000   0.000000  -0.000000   1.438786
    5  C  1  X   -0.255152   0.000000   0.000000  -0.000000  -0.062088
    6  C  1  Y   -0.000000   0.000000  -0.113829  -0.000000  -0.000000
    7  C  1  Z   -0.000000   0.000000   0.000000   0.023697  -0.000000
    8  C  1  X    0.358861   0.000000   0.000000  -0.000000  -0.155923
    9  C  1  Y   -0.000000   0.000000  -0.410797  -0.000000  -0.000000
   10  C  1  Z   -0.000000   0.000000   0.000000   0.128371  -0.000000
   11  C  1  X    4.894478   0.000000   0.000000  -0.000000  -1.000515
   12  C  1  Y   -0.000000   0.000000  -3.837488  -0.000000  -0.000000
   13  C  1  Z   -0.000000   0.000000   0.000000  -0.267133  -0.000000
   14  C  1 XX    0.048068   0.000000   0.000000  -0.000000  -0.015384
   15  C  1 YY   -0.037072   0.000000   0.000000  -0.000000  -0.000956
   16  C  1 ZZ   -0.010997   0.000000   0.000000  -0.000000   0.016340
   17  C  1 XY   -0.000000   0.000000  -0.026793  -0.000000  -0.000000
   18  C  1 XZ   -0.000000   0.000000   0.000000  -0.007451  -0.000000
   19  C  1 YZ   -0.000000   0.007166   0.000000  -0.000000  -0.000000
   20  C  1 XX    0.803812   0.000000   0.000000  -0.000000   0.039443
   21  C  1 YY   -0.295489   0.000000   0.000000  -0.000000   0.535439
   22  C  1 ZZ   -0.508323   0.000000   0.000000  -0.000000  -0.574882
   23  C  1 XY   -0.000000   0.000000   0.880848  -0.000000  -0.000000
   24  C  1 XZ   -0.000000   0.000000   0.000000  -0.385777  -0.000000
   25  C  1 YZ   -0.000000   0.136150   0.000000  -0.000000  -0.000000
   26  C  1 XXX   0.074571   0.000000   0.000000  -0.000000   0.015884
   27  C  1 YYY  -0.000000   0.000000  -0.012663  -0.000000  -0.000000
   28  C  1 ZZZ  -0.000000   0.000000   0.000000   0.002684  -0.000000
   29  C  1 XXY  -0.000000   0.000000  -0.015988  -0.000000  -0.000000
   30  C  1 XXZ  -0.000000   0.000000   0.000000   0.012863  -0.000000
   31  C  1 YYX  -0.052247   0.000000   0.000000  -0.000000  -0.040955
   32  C  1 YYZ  -0.000000   0.000000   0.000000  -0.016464  -0.000000
   33  C  1 ZZX  -0.047800   0.000000   0.000000  -0.000000   0.019644
   34  C  1 ZZY  -0.000000   0.000000   0.032978  -0.000000  -0.000000
   35  C  1 XYZ  -0.000000   0.029228   0.000000  -0.000000  -0.000000
   36  C  2  S   -0.008278   0.000000   0.000000  -0.000000  -0.020354
   37  C  2  S    0.171729   0.000000   0.000000  -0.000000  -0.015508
   38  C  2  S    0.129256   0.000000   0.000000  -0.000000  -0.068417
   39  C  2  S   -8.917711   0.000000   0.000000  -0.000000   1.438786
   40  C  2  X   -0.255152   0.000000   0.000000  -0.000000   0.062088
   41  C  2  Y   -0.000000   0.000000   0.113829  -0.000000  -0.000000
   42  C  2  Z   -0.000000   0.000000   0.000000   0.023697  -0.000000
   43  C  2  X    0.358861   0.000000   0.000000  -0.000000   0.155923
   44  C  2  Y   -0.000000   0.000000   0.410797  -0.000000  -0.000000
   45  C  2  Z   -0.000000   0.000000   0.000000   0.128371  -0.000000
   46  C  2  X    4.894478   0.000000   0.000000  -0.000000   1.000515
   47  C  2  Y   -0.000000   0.000000   3.837488  -0.000000  -0.000000
   48  C  2  Z   -0.000000   0.000000   0.000000  -0.267133  -0.000000
   49  C  2 XX   -0.048068   0.000000   0.000000  -0.000000  -0.015384
   50  C  2 YY    0.037072   0.000000   0.000000  -0.000000  -0.000956
   51  C  2 ZZ    0.010997   0.000000   0.000000  -0.000000   0.016340
   52  C  2 XY   -0.000000   0.000000  -0.026793  -0.000000  -0.000000
   53  C  2 XZ   -0.000000   0.000000   0.000000   0.007451  -0.000000
   54  C  2 YZ   -0.000000  -0.007166   0.000000  -0.000000  -0.000000
   55  C  2 XX   -0.803812   0.000000   0.000000  -0.000000   0.039443
   56  C  2 YY    0.295489   0.000000   0.000000  -0.000000   0.535439
   57  C  2 ZZ    0.508323   0.000000   0.000000  -0.000000  -0.574882
   58  C  2 XY   -0.000000   0.000000   0.880848  -0.000000  -0.000000
   59  C  2 XZ   -0.000000   0.000000   0.000000   0.385777  -0.000000
   60  C  2 YZ   -0.000000  -0.136150   0.000000  -0.000000  -0.000000
   61  C  2 XXX   0.074571   0.000000   0.000000  -0.000000  -0.015884
   62  C  2 YYY  -0.000000   0.000000   0.012663  -0.000000  -0.000000
   63  C  2 ZZZ  -0.000000   0.000000   0.000000   0.002684  -0.000000
   64  C  2 XXY  -0.000000   0.000000   0.015988  -0.000000  -0.000000
   65  C  2 XXZ  -0.000000   0.000000   0.000000   0.012863  -0.000000
   66  C  2 YYX  -0.052247   0.000000   0.000000  -0.000000   0.040955
   67  C  2 YYZ  -0.000000   0.000000   0.000000  -0.016464  -0.000000
   68  C  2 ZZX  -0.047800   0.000000   0.000000  -0.000000  -0.019644
   69  C  2 ZZY  -0.000000   0.000000  -0.032978  -0.000000  -0.000000
   70  C  2 XYZ  -0.000000   0.029228   0.000000  -0.000000  -0.000000
   71  H  3  S   -0.007804   0.000000  -0.040848  -0.000000  -0.018906
   72  H  3  S   -0.440483   0.000000  -1.912126  -0.000000  -0.886397
   73  H  3  S    0.765152   0.000000  -0.895997  -0.000000  -0.200350
   74  H  3  X    0.008287   0.000000  -0.021301  -0.000000  -0.040731
   75  H  3  Y   -0.011142   0.000000  -0.017084  -0.000000  -0.016418
   76  H  3  Z   -0.000000   0.035791   0.000000  -0.027163  -0.000000
   77  H  3  X   -0.217588   0.000000   0.194386  -0.000000   0.325235
   78  H  3  Y    0.082950   0.000000  -0.275543  -0.000000  -0.034648
   79  H  3  Z   -0.000000  -0.485309   0.000000   0.344286  -0.000000
   80  H  3 XX   -0.006997   0.000000   0.020143  -0.000000   0.001827
   81  H  3 YY    0.004767   0.000000  -0.018786  -0.000000  -0.001037
   82  H  3 ZZ    0.002231   0.000000  -0.001356  -0.000000  -0.000791
   83  H  3 XY   -0.000346   0.000000  -0.001287  -0.000000  -0.004650
   84  H  3 XZ   -0.000000  -0.004516   0.000000  -0.005624  -0.000000
   85  H  3 YZ   -0.000000  -0.007352   0.000000   0.001503  -0.000000
   86  H  4  S   -0.007804   0.000000   0.040848  -0.000000  -0.018906
   87  H  4  S   -0.440483   0.000000   1.912126  -0.000000  -0.886397
   88  H  4  S    0.765152   0.000000   0.895997  -0.000000  -0.200350
   89  H  4  X    0.008287   0.000000   0.021301  -0.000000  -0.040731
   90  H  4  Y    0.011142   0.000000  -0.017084  -0.000000   0.016418
   91  H  4  Z   -0.000000  -0.035791   0.000000  -0.027163  -0.000000
   92  H  4  X   -0.217588   0.000000  -0.194386  -0.000000   0.325235
   93  H  4  Y   -0.082950   0.000000  -0.275543  -0.000000   0.034648
   94  H  4  Z   -0.000000   0.485309   0.000000   0.344286  -0.000000
   95  H  4 XX   -0.006997   0.000000  -0.020143  -0.000000   0.001827
   96  H  4 YY    0.004767   0.000000   0.018786  -0.000000  -0.001037
   97  H  4 ZZ    0.002231   0.000000   0.001356  -0.000000  -0.000791
   98  H  4 XY    0.000346   0.000000  -0.001287  -0.000000   0.004650
[...]
  78  3  H     y   0.00000  -0.00000
  79  3  H     z   0.01632   0.00776
  80  3  H    xx   0.00000  -0.00000
  81  3  H    yy   0.00000  -0.00000
  82  3  H    zz   0.00000  -0.00000
  83  3  H    xy   0.00000  -0.00000
  84  3  H    xz   0.00171   0.00077
  85  3  H    yz   0.00250   0.00011
  86  4  H     s   0.00000   0.00000
  87  4  H     s   0.00000  -0.00000
  88  4  H     s  -0.00000   0.00000
  89  4  H     x   0.00000   0.00000
  90  4  H     y  -0.00000   0.00000
  91  4  H     z   0.00721   0.00151
  92  4  H     x   0.00000  -0.00000
  93  4  H     y  -0.00000   0.00000
  94  4  H     z   0.01632   0.00776
  95  4  H    xx   0.00000  -0.00000
  96  4  H    yy   0.00000  -0.00000
  97  4  H    zz   0.00000  -0.00000
  98  4  H    xy  -0.00000   0.00000
  99  4  H    xz   0.00171   0.00077
 100  4  H    yz  -0.00250  -0.00011
 101  5  H     s   0.00000   0.00000
 102  5  H     s  -0.00000   0.00000
 103  5  H     s   0.00000  -0.00000
 104  5  H     x  -0.00000  -0.00000
 105  5  H     y  -0.00000   0.00000
 106  5  H     z   0.00151   0.00721
 107  5  H     x   0.00000  -0.00000
 108  5  H     y  -0.00000   0.00000
 109  5  H     z   0.00776   0.01632
 110  5  H    xx  -0.00000   0.00000
 111  5  H    yy  -0.00000   0.00000
 112  5  H    zz  -0.00000   0.00000
 113  5  H    xy   0.00000  -0.00000
 114  5  H    xz  -0.00077  -0.00171
 115  5  H    yz   0.00011   0.00250
 116  6  H     s   0.00000   0.00000
 117  6  H     s  -0.00000   0.00000
 118  6  H     s   0.00000  -0.00000
 119  6  H     x  -0.00000  -0.00000
 120  6  H     y   0.00000  -0.00000
 121  6  H     z   0.00151   0.00721
 122  6  H     x   0.00000  -0.00000
 123  6  H     y   0.00000  -0.00000
 124  6  H     z   0.00776   0.01632
 125  6  H    xx  -0.00000   0.00000
 126  6  H    yy  -0.00000   0.00000
 127  6  H    zz  -0.00000   0.00000
 128  6  H    xy  -0.00000   0.00000
 129  6  H    xz  -0.00077  -0.00171
 130  6  H    yz  -0.00011  -0.00250


 CALCULATION OF POSITION AND EXTENT OF VB ORBITALS

 DEFAULT CENTROIDS AND EXTENTS.

 MOLECULAR GEOMETRY ABOUT CENTER OF MASS

  Atom#   ATOMIC NO.     X        Y        Z
    1         6       -0.6737   0.0000   0.0000
    2         6        0.6737   0.0000   0.0000
    3         1       -1.2485  -0.9339   0.0000
    4         1       -1.2485   0.9339   0.0000
    5         1        1.2485  -0.9339   0.0000
    6         1        1.2485   0.9339   0.0000

 CENTROIDS OF CHARGE FOR EACH VB GROUP & DISTANCES FROM 5 ATOMS

                                                  DISTANCES FROM ATOMS
 Orbital#   Group#       X        Y        Z        1        2        3        4        5

    3         2        0.1626   0.0000  -0.0000   0.8363   0.5110   1.6921   1.6921   1.4322
    4         2       -0.1626   0.0000  -0.0000   0.5110   0.8363   1.4322   1.4322   1.6921
    5         3       -0.9410  -0.4317  -0.0000   0.5078   1.6714   0.5888   1.3997   2.2464
    6         3       -1.1986  -0.8436  -0.0000   0.9936   2.0535   0.1031   1.7782   2.4487
    7         4        0.9410  -0.4317  -0.0000   1.6714   0.5078   2.2464   2.5805   0.5888
    8         4        1.1986  -0.8436  -0.0000   2.0535   0.9936   2.4487   3.0245   0.1031
    9         5        0.9410   0.4317  -0.0000   1.6714   0.5078   2.5805   2.2464   1.3997
   10         5        1.1986   0.8436  -0.0000   2.0535   0.9936   3.0245   2.4487   1.7782
   11         6       -0.9410   0.4317  -0.0000   0.5078   1.6714   1.3997   0.5888   2.5805
   12         6       -1.1986   0.8436  -0.0000   0.9936   2.0535   1.7782   0.1031   3.0245
   13         7       -0.5322  -0.0000   0.0000   0.1415   1.2058   1.1769   1.1769   2.0107
   14         7        0.5322  -0.0000   0.0000   1.2058   0.1415   2.0107   2.0107   1.1769

 DISTANCE MATRIX OF VB ORBITALS CENTROIDS 

        1      2      3      4      5      6      7      8      9     10     11     12
 =======================================================================================
   1 0.0000
   2 0.3252 0.0000
   3 1.1851 0.8901 0.0000
   4 1.6014 1.3360 0.4858 0.0000
   5 0.8901 1.1851 1.8821 2.1789 0.0000
   6 1.3360 1.6014 2.1789 2.3971 0.4858 0.0000
   7 0.8901 1.1851 2.0706 2.4908 0.8633 1.3010 0.0000
   8 1.3360 1.6014 2.4908 2.9314 1.3010 1.6873 0.4858 0.0000
   9 1.1851 0.8901 0.8633 1.3010 2.0706 2.4908 1.8821 2.1789 0.0000
  10 1.6014 1.3360 1.3010 1.6873 2.4908 2.9314 2.1789 2.3971 0.4858 0.0000
  11 0.6948 0.3696 0.5946 1.0751 1.5352 1.9254 1.5352 1.9254 0.5946 1.0751 0.0000
  12 0.3696 0.6948 1.5352 1.9254 0.5946 1.0751 0.5946 1.0751 1.5352 1.9254 1.0644 0.0000

 EXTENT OF ORBITAL MEASURED BY (<R**2>)

 Orbital#   Group#     <X**2>   <Y**2>   <Z**2>   <R**2> Sqrt<R**2>

    3         2        0.1803   0.1602   0.1666   0.5072   0.7122
    4         2        0.1803   0.1602   0.1666   0.5072   0.7122
    5         3        0.1887   0.2050   0.1663   0.5600   0.7483
    6         3        0.2086   0.2267   0.1945   0.6298   0.7936
    7         4        0.1887   0.2050   0.1663   0.5600   0.7483
    8         4        0.2086   0.2267   0.1945   0.6298   0.7936
    9         5        0.1887   0.2050   0.1663   0.5600   0.7483
   10         5        0.2086   0.2267   0.1945   0.6298   0.7936
   11         6        0.1887   0.2050   0.1663   0.5600   0.7483
   12         6        0.2086   0.2267   0.1945   0.6298   0.7936
   13         7        0.3206   0.2310   0.6567   1.2084   1.0993
   14         7        0.3206   0.2310   0.6567   1.2084   1.0993

 WORDS OF DYNAMIC MEMORY USED IN VB2000 CODE ONLY:    37835715
 NOTE THAT THIS IS IN ADDITION TO MEMORY USED BY GAMESS
 PRINTED NEAR END OF OUTPUT. ADD THE TWO AMOUNTS TO GIVE
 THE TOTAL MEMORY USED BY THE JOB

 STATISTICS OF CPU TIMES (SECONDS)
 CPU TIME FOR INITIALIZATION        9.783
 CPU TIME FOR MACROITERATION      349.776
 TOTAL CPU TIME                   359.560


 **************************************************************
 *                                                            *
 *                  ENDING GAMESS(US) VB2000                  *
 *            FINAL VB2000 ENERGY =   -78.16214635            *
 *  Properties for individual molecular orbitals are correct  *
 *   only for VB modified orbitals in a Hartree-Fock group.   *
 *                                                            *
 **************************************************************
 STEP CPU TIME =   362.33 TOTAL CPU TIME =        366.5 (      6.1 MIN)
 TOTAL WALL CLOCK TIME=        366.7 SECONDS, CPU UTILIZATION IS    99.95%

     ----------------------------------
     PROPERTIES FOR THE VB WAVEFUNCTION
     ----------------------------------

          -----------------
          ENERGY COMPONENTS
          -----------------

         WAVEFUNCTION NORMALIZATION =       1.0000000000

                ONE ELECTRON ENERGY =    -169.4085447630
                TWO ELECTRON ENERGY =      58.2524585522
           NUCLEAR REPULSION ENERGY =      32.9939398586
                                      ------------------
                       TOTAL ENERGY =     -78.1621463522

 ELECTRON-ELECTRON POTENTIAL ENERGY =      58.2524585522
  NUCLEUS-ELECTRON POTENTIAL ENERGY =    -247.5058000749
   NUCLEUS-NUCLEUS POTENTIAL ENERGY =      32.9939398586
                                      ------------------
             TOTAL POTENTIAL ENERGY =    -156.2594016641
               TOTAL KINETIC ENERGY =      78.0972553119
                 VIRIAL RATIO (V/T) =       2.0008309004

          ---------------------------------------
          MULLIKEN AND LOWDIN POPULATION ANALYSES
          ---------------------------------------

     ATOMIC MULLIKEN POPULATION IN EACH MOLECULAR ORBITAL

                      1          2          3          4          5

                  2.000000   2.000000   2.000000   2.000000   2.000000

    1            -0.001490   2.005033   0.897632   0.634194   0.572427
    2             2.005033  -0.001490   0.897632   0.634194   0.572427
    3            -0.000004  -0.001767   0.051184   0.182903   0.213786
    4            -0.000004  -0.001767   0.051184   0.182903   0.213786
    5            -0.001767  -0.000004   0.051184   0.182903   0.213786
    6            -0.001767  -0.000004   0.051184   0.182903   0.213786

                      6          7          8

                  2.000000   2.000000   2.000000

    1             0.713234   0.479391   0.980106
    2             0.713234   0.479391   0.980106
    3             0.143383   0.260304   0.009947
    4             0.143383   0.260304   0.009947
    5             0.143383   0.260304   0.009947
    6             0.143383   0.260304   0.009947

               ----- POPULATIONS IN EACH AO -----
                             MULLIKEN      LOWDIN
              1  C  1  S      1.95570     1.56096
              2  C  1  S      0.80774     0.43537
              3  C  1  S      0.17875     0.28353
              4  C  1  S      0.31413     0.15530
              5  C  1  X      0.32199     0.24837
              6  C  1  Y      0.29348     0.21846
              7  C  1  Z      0.21704     0.17460
              8  C  1  X      0.47793     0.27962
              9  C  1  Y      0.48743     0.26780
             10  C  1  Z      0.41267     0.22620
             11  C  1  X      0.09911     0.16320
             12  C  1  Y      0.19332     0.20857
             13  C  1  Z      0.31199     0.26269
             14  C  1 XX      0.00243     0.10686
             15  C  1 YY      0.00611     0.09125
             16  C  1 ZZ      0.00742     0.07480
             17  C  1 XY      0.00250     0.00671
             18  C  1 XZ      0.00000     0.00221
             19  C  1 YZ      0.01864     0.00000
             20  C  1 XX      0.00379     0.11611
             21  C  1 YY      0.00677     0.10085
             22  C  1 ZZ      0.03112     0.04860
             23  C  1 XY      0.01268     0.08847
             24  C  1 XZ      0.00000     0.02883
             25  C  1 YZ      0.02768     0.00000
             26  C  1 XXX     0.00188     0.18751
             27  C  1 YYY     0.00079     0.16151
             28  C  1 ZZZ     0.00053     0.11557
             29  C  1 XXY     0.00084     0.08677
             30  C  1 XXZ     0.00056     0.07503
             31  C  1 YYX    -0.00000     0.08880
             32  C  1 YYZ     0.00115     0.04746
             33  C  1 ZZX     0.02691     0.06350
             34  C  1 ZZY     0.02511     0.05723
             35  C  1 XYZ     0.02185     0.00000
             36  C  2  S      1.95570     1.56096
             37  C  2  S      0.80774     0.43537
             38  C  2  S      0.17875     0.28353
             39  C  2  S      0.31413     0.15530
             40  C  2  X      0.32199     0.24837
             41  C  2  Y      0.29348     0.21846
             42  C  2  Z      0.21704     0.17460
             43  C  2  X      0.47793     0.27962
             44  C  2  Y      0.48743     0.26780
             45  C  2  Z      0.41267     0.22620
             46  C  2  X      0.09911     0.16320
             47  C  2  Y      0.19332     0.20857
             48  C  2  Z      0.31199     0.26269
             49  C  2 XX      0.00243     0.10686
             50  C  2 YY      0.00611     0.09125
             51  C  2 ZZ      0.00742     0.07480
             52  C  2 XY      0.00250     0.00671
             53  C  2 XZ      0.00000     0.00221
             54  C  2 YZ      0.01864     0.00000
             55  C  2 XX      0.00379     0.11611
             56  C  2 YY      0.00677     0.10085
             57  C  2 ZZ      0.03112     0.04860
             58  C  2 XY      0.01268     0.08847
             59  C  2 XZ      0.00000     0.02883
             60  C  2 YZ      0.02768     0.00000
             61  C  2 XXX     0.00188     0.18751
             62  C  2 YYY     0.00079     0.16151
             63  C  2 ZZZ     0.00053     0.11557
             64  C  2 XXY     0.00084     0.08677
             65  C  2 XXZ     0.00056     0.07503
             66  C  2 YYX    -0.00000     0.08880
             67  C  2 YYZ     0.00115     0.04746
             68  C  2 ZZX     0.02691     0.06350
             69  C  2 ZZY     0.02511     0.05723
             70  C  2 XYZ     0.02185     0.00000
             71  H  3  S      0.26934     0.20173
             72  H  3  S      0.47021     0.26137
             73  H  3  S      0.10350     0.14011
             74  H  3  X      0.00228     0.00368
             75  H  3  Y      0.00485     0.00678
             76  H  3  Z      0.00104     0.00147
             77  H  3  X      0.00202     0.02604
             78  H  3  Y     -0.00082     0.03934
             79  H  3  Z      0.00823     0.02829
             80  H  3 XX      0.00016     0.08652
             81  H  3 YY      0.00071     0.10570
             82  H  3 ZZ      0.00053     0.07228
             83  H  3 XY      0.00022     0.00638
             84  H  3 XZ      0.00034     0.00132
             85  H  3 YZ      0.00237     0.00262
             86  H  4  S      0.26934     0.20173
             87  H  4  S      0.47021     0.26137
             88  H  4  S      0.10350     0.14011
             89  H  4  X      0.00228     0.00368
             90  H  4  Y      0.00485     0.00678
             91  H  4  Z      0.00104     0.00147
             92  H  4  X      0.00202     0.02604
             93  H  4  Y     -0.00082     0.03934
             94  H  4  Z      0.00823     0.02829
             95  H  4 XX      0.00016     0.08652
             96  H  4 YY      0.00071     0.10570
             97  H  4 ZZ      0.00053     0.07228
             98  H  4 XY      0.00022     0.00638
             99  H  4 XZ      0.00034     0.00132
            100  H  4 YZ      0.00237     0.00262
            101  H  5  S      0.26934     0.20173
            102  H  5  S      0.47021     0.26137
            103  H  5  S      0.10350     0.14011
            104  H  5  X      0.00228     0.00368
            105  H  5  Y      0.00485     0.00678
            106  H  5  Z      0.00104     0.00147
            107  H  5  X      0.00202     0.02604
            108  H  5  Y     -0.00082     0.03934
            109  H  5  Z      0.00823     0.02829
            110  H  5 XX      0.00016     0.08652
            111  H  5 YY      0.00071     0.10570
            112  H  5 ZZ      0.00053     0.07228
            113  H  5 XY      0.00022     0.00638
            114  H  5 XZ      0.00034     0.00132
            115  H  5 YZ      0.00237     0.00262
            116  H  6  S      0.26934     0.20173
            117  H  6  S      0.47021     0.26137
            118  H  6  S      0.10350     0.14011
            119  H  6  X      0.00228     0.00368
            120  H  6  Y      0.00485     0.00678
            121  H  6  Z      0.00104     0.00147
            122  H  6  X      0.00202     0.02604
            123  H  6  Y     -0.00082     0.03934
            124  H  6  Z      0.00823     0.02829
            125  H  6 XX      0.00016     0.08652
            126  H  6 YY      0.00071     0.10570
            127  H  6 ZZ      0.00053     0.07228
            128  H  6 XY      0.00022     0.00638
            129  H  6 XZ      0.00034     0.00132
            130  H  6 YZ      0.00237     0.00262

          ----- MULLIKEN ATOMIC OVERLAP POPULATIONS -----
          (OFF-DIAGONAL ELEMENTS NEED TO BE MULTIPLIED BY 2)

             1           2           3           4           5

    1    5.0228886
    2    0.5664893   5.0228886
    3    0.3843133  -0.0439827   0.5560751
    4    0.3843125  -0.0439830  -0.0311115   0.5560792
    5   -0.0439830   0.3843129  -0.0043983   0.0040838   0.5560765
    6   -0.0439827   0.3843128   0.0040837  -0.0043983  -0.0311115

             6

    6    0.5560778

          TOTAL MULLIKEN AND LOWDIN ATOMIC POPULATIONS
       ATOM         MULL.POP.    CHARGE          LOW.POP.     CHARGE
    1 C             6.270038   -0.270038         6.032728   -0.032728
    2 C             6.270038   -0.270038         6.032728   -0.032728
    3 H             0.864980    0.135020         0.983635    0.016365
    4 H             0.864983    0.135017         0.983637    0.016363
    5 H             0.864980    0.135020         0.983636    0.016364
    6 H             0.864982    0.135018         0.983636    0.016364

          MULLIKEN SPHERICAL HARMONIC POPULATIONS
       ATOM           S       P       D      F      G      H      I    TOTAL
    1 C             3.30    2.89    0.07   0.01   0.00   0.00   0.00    6.27
    2 C             3.30    2.89    0.07   0.01   0.00   0.00   0.00    6.27
    3 H             0.85    0.02    0.00   0.00   0.00   0.00   0.00    0.86
    4 H             0.85    0.02    0.00   0.00   0.00   0.00   0.00    0.86
    5 H             0.85    0.02    0.00   0.00   0.00   0.00   0.00    0.86
    6 H             0.85    0.02    0.00   0.00   0.00   0.00   0.00    0.86

          -------------------------------
          BOND ORDER AND VALENCE ANALYSIS     BOND ORDER THRESHOLD=0.050
          -------------------------------

                   BOND                       BOND                       BOND
  ATOM PAIR DIST  ORDER      ATOM PAIR DIST  ORDER      ATOM PAIR DIST  ORDER
    1   2  1.347  1.730        1   3  1.097  0.933        1   4  1.097  0.933
    2   5  1.097  0.933        2   6  1.097  0.933

                       TOTAL       BONDED        FREE
      ATOM            VALENCE     VALENCE     VALENCE
    1 C                 3.840       3.595       0.245
    2 C                 3.840       3.595       0.245
    3 H                 0.971       0.938       0.033
    4 H                 0.971       0.938       0.033
    5 H                 0.971       0.938       0.033
    6 H                 0.971       0.938       0.033

          ---------------------
          ELECTROSTATIC MOMENTS
          ---------------------

 POINT   1           X           Y           Z (BOHR)    CHARGE
                 0.000000    0.000000    0.000000        0.00 (A.U.)
         DX          DY          DZ         /D/  (DEBYE)
     0.000000   -0.000014    0.000001    0.000014
 ...... END OF PROPERTY EVALUATION ......
 STEP CPU TIME =     0.03 TOTAL CPU TIME =        366.6 (      6.1 MIN)
 TOTAL WALL CLOCK TIME=        366.7 SECONDS, CPU UTILIZATION IS    99.95%
               580000  WORDS OF DYNAMIC MEMORY USED
 EXECUTION OF GAMESS TERMINATED NORMALLY 10:32:38 30-SEP-2021    
 DDI: 263640 bytes (0.3 MB / 0 MWords) used by master data server.

 ----------------------------------------
 CPU timing information for all processes
 ========================================
 0: 353.741 + 12.818 = 366.560
 ----------------------------------------
 ddikick.x: exited gracefully.
----- accounting info -----
Files used on the master node david-X450LD were:
-rw-rw-r-- 1 david david      2784 set 30 10:32 /tmp/C2H4.dmat
-rw-rw-r-- 1 david david       511 set 30 10:26 /tmp/C2H4.F05
-rw-rw-r-- 1 david david 204498176 set 30 10:26 /tmp/C2H4.F08
-rw-rw-r-- 1 david david   2846640 set 30 10:32 /tmp/C2H4.F10
-rw-rw-r-- 1 david david      3538 set 30 10:32 /tmp/C2H4.gpfep
-rw-rw-r-- 1 david david        32 set 30 10:32 /tmp/C2H4.TEMP02
-rw-rw-r-- 1 david david        32 set 30 10:32 /tmp/C2H4.TEMP03
-rw-rw-r-- 1 david david        56 set 30 10:32 /tmp/C2H4.TEMP04
-rw-rw-r-- 1 david david     25748 set 30 10:26 /tmp/C2H4.TEMP-MOD
-rw-rw-r-- 1 david david       810 set 30 10:26 /tmp/C2H4.V80
-rw-rw-r-- 1 david david         0 set 30 10:26 /tmp/C2H4.V82
-rw-rw-r-- 1 david david         0 set 30 10:26 /tmp/C2H4.V83
-rw-rw-r-- 1 david david    137168 set 30 10:32 /tmp/C2H4.V84
-rw-rw-r-- 1 david david     89072 set 30 10:32 /tmp/C2H4.V85
-rw-rw-r-- 1 david david   4325024 set 30 10:32 /tmp/C2H4.V86
-rw-rw-r-- 1 david david  17398392 set 30 10:32 /tmp/C2H4.V87
-rw-rw-r-- 1 david david        56 set 30 10:32 /tmp/C2H4.V88
-rw-rw-r-- 1 david david         0 set 30 10:26 /tmp/C2H4.V89
qui 30 set 2021 10:32:41 -03
0.1u 0.0s 6:09.97 0.0% 0+0k 0+304io 0pf+0w
